
 displacements (vx,vy,vz) for set NALL and time  0.1000000E+01

         1  1.583713E-01  6.948233E+00 -8.579323E+00
         2  5.123803E-03  6.916444E+00  0.000000E+00
         3  2.652148E-01  0.000000E+00 -8.548986E+00
         4  0.000000E+00  0.000000E+00  0.000000E+00
         5 -1.386532E+01  6.136582E+00 -8.752522E+00
         6 -1.380387E+01  6.141699E+00  0.000000E+00
         7 -1.356463E+01  0.000000E+00 -8.755515E+00
         8 -1.338223E+01  0.000000E+00  0.000000E+00
         9 -7.048232E+00  6.977397E+00  0.000000E+00
        10 -6.876632E+00  0.000000E+00  0.000000E+00
        11 -6.952632E+00  6.993015E+00 -9.172648E+00
        12 -6.794185E+00  0.000000E+00 -9.167441E+00
        13 -1.349648E+01  3.081098E+00  0.000000E+00
        14 -1.054740E+01  6.651236E+00  0.000000E+00
        15 -3.493942E+00  6.995458E+00  0.000000E+00
        16 -1.108359E-02  3.466402E+00  0.000000E+00
        17 -1.024514E+01  0.000000E+00  0.000000E+00
        18 -3.428849E+00  0.000000E+00  0.000000E+00
        19 -1.357227E+01  3.100425E+00 -8.752224E+00
        20 -1.061355E+01  6.617935E+00 -9.027997E+00
        21 -3.335777E+00  6.970179E+00 -8.878045E+00
        22  2.196253E-01  3.486440E+00 -8.563320E+00
        23 -1.032319E+01  0.000000E+00 -9.052092E+00
        24 -3.226984E+00  0.000000E+00 -8.899121E+00
        25  1.331228E-02  6.931251E+00 -4.304759E+00
        26 -1.373354E+01  6.135900E+00 -4.411879E+00
        27  4.067911E-02  0.000000E+00 -4.287038E+00
        28 -1.341272E+01  0.000000E+00 -4.395421E+00
        29 -1.031671E+01  3.321056E+00  0.000000E+00
        30 -6.923080E+00  3.484137E+00  0.000000E+00
        31 -3.462049E+00  3.497868E+00  0.000000E+00
        32 -1.037475E+01  3.305328E+00 -9.034165E+00
        33 -3.259646E+00  3.490593E+00 -8.894126E+00
        34 -6.833560E+00  3.488247E+00 -9.170766E+00
        35 -1.053298E+01  6.631912E+00 -4.513688E+00
        36 -3.466913E+00  6.987703E+00 -4.447443E+00
        37 -7.025972E+00  6.975971E+00 -4.569737E+00
        38 -1.026576E+01  0.000000E+00 -4.535367E+00
        39 -3.389408E+00  0.000000E+00 -4.454216E+00
        40 -6.863127E+00  0.000000E+00 -4.566559E+00
        41  2.386944E-02  3.484829E+00 -4.303713E+00
        42 -1.346751E+01  3.096248E+00 -4.408595E+00
        43 -6.903482E+00  3.484601E+00 -4.575717E+00
        44 -1.031886E+01  3.322291E+00 -4.524767E+00
        45 -3.422522E+00  3.495213E+00 -4.449076E+00

 stresses (elem, integ.pnt.,sxx,syy,szz,sxy,sxz,syz) for set EALL and time  0.1000000E+01

        37   1 -1.189913E+00 -1.216637E+00 -1.226363E+00  9.084017E-02 -1.487362E-01 -3.794850E-02
        37   2 -3.134361E-01 -8.787661E-01 -3.681339E-01  9.519135E-02 -5.335496E-01 -1.202074E-02
        37   3 -1.300500E+00 -2.878915E-01 -8.609057E-03  2.913316E-02  2.539335E-03  4.250151E-02
        37   4  6.024729E-04 -4.974008E-01 -3.822243E-01  4.609909E-01 -6.255513E-01 -2.181104E-02
        38   1  8.314241E-02  7.025299E-02  6.337659E-01 -2.613068E-01  8.651963E-02 -1.028011E-01
        38   2 -4.967777E-01 -2.606940E-01 -3.919116E-01 -3.284476E-01  6.328738E-01  3.510853E-02
        38   3 -4.272113E-01  4.126709E-01  6.497138E-01 -2.377618E-01 -1.272648E-01 -4.179062E-02
        38   4 -1.378441E+00 -3.704085E-01 -1.048013E+00 -3.256450E-01 -5.943310E-02  1.733473E-01
        39   1  9.020379E-01 -9.123121E-01 -3.347648E-01  1.031689E-01 -2.155106E-01  5.107638E-02
        39   2  1.184954E+00 -5.556579E-01 -3.801007E-01  5.397306E-01 -3.120681E-01  1.291977E-01
        39   3  5.248309E-01  4.786153E-01 -1.192133E-01  4.345260E-02 -4.916121E-01  1.193014E-01
        39   4 -9.492351E-01  5.922590E-01  2.470434E-01  3.793496E-02 -3.665374E-01  9.303719E-02
        40   1 -5.727118E-01  1.262930E+00  1.422449E+00  2.563770E-01 -3.499616E-01 -2.945636E-04
        40   2 -3.431318E-02  1.514025E+00  1.004443E+00  3.491002E-01 -3.987923E-01 -4.485842E-02
        40   3 -4.207776E-02  1.063131E+00  1.669792E+00  3.925669E-01 -4.692150E-01 -5.154070E-02
        40   4  4.798315E-01 -5.253364E-01 -6.254250E-01  4.546660E-01 -3.969302E-01  1.129626E-01
        41   1  1.131502E+00 -4.203394E-01 -3.269809E-01  4.558184E-01 -5.919857E-01  2.300399E-03
        41   2  8.444259E-01 -5.353023E-01 -1.043755E+00  3.645764E-01 -1.162735E-01  5.781319E-02
        41   3  1.434056E-01  1.616883E-01 -3.346042E-01  6.041407E-01 -6.936009E-02  1.170636E-01
        41   4 -1.432162E+00 -1.108412E+00 -1.341498E+00 -9.041114E-03 -1.044388E-01  4.941368E-02
        42   1  4.491688E-01  7.351384E-01  3.720403E-01 -4.478329E-01  3.299029E-01 -5.294171E-02
        42   2  1.692624E-01  1.354067E+00  4.810847E-01 -2.568484E-01  3.491105E-01 -3.423377E-02
        42   3 -6.255119E-01  1.271349E+00  9.911170E-01 -1.283421E-01  3.379475E-01 -4.758525E-02
        42   4  1.371733E+00 -5.438043E-01 -3.859598E-01 -4.897086E-01  4.497431E-01  1.507514E-01
        43   1  2.430301E-01  5.737968E-01  1.506993E+00 -3.883007E-01  3.554229E-01 -3.966851E-02
        43   2  1.379617E+00 -2.736366E-01 -6.434169E-01 -4.933717E-01  4.756965E-01  1.402451E-01
        43   3  4.633280E-01  3.948073E-01  7.450614E-01 -3.437587E-01  4.664990E-01 -5.803627E-02
        43   4 -6.178691E-01  8.550613E-01  1.395782E+00 -2.807013E-01  2.181101E-01 -6.031054E-02
        44   1  7.864273E-01 -3.610386E-01 -7.993550E-01 -4.286974E-01  1.212848E-01  4.557285E-02
        44   2  2.072465E-01  2.087031E-01 -4.742908E-02 -5.005835E-01  1.097511E-01  8.508355E-02
        44   3 -1.411254E+00 -9.351838E-01 -1.075282E+00 -6.931314E-02  1.341508E-01  3.644141E-02
        44   4  1.027217E+00 -2.486303E-01 -3.249853E-02 -4.464788E-01  4.666233E-01 -1.477730E-02
        45   1  9.236312E-01 -5.940187E-01 -2.393546E-01 -9.713501E-02  2.744764E-01  1.272240E-02
        45   2 -1.026560E+00  4.882563E-01  3.587494E-01 -7.278189E-02  4.172799E-01  6.111236E-02
        45   3  5.055631E-01  5.402869E-01 -3.169304E-02 -7.026796E-02  4.143172E-01  6.030942E-02
        45   4  1.158299E+00 -1.636086E-01 -1.389882E-01 -4.851418E-01  3.140274E-01  4.313687E-02
        46   1 -9.709484E-01 -1.684307E-01  1.142004E-01 -6.974995E-02  1.153952E-01  2.199017E-02
        46   2 -4.208825E-01 -7.024378E-01 -1.520644E-01 -9.269441E-02  5.047251E-01 -2.122203E-02
        46   3 -1.185117E+00 -1.036495E+00 -1.052504E+00 -9.742475E-02  2.286301E-01 -4.940912E-02
        46   4 -2.071646E-01 -3.103204E-01 -1.893307E-01 -4.264520E-01  5.692259E-01 -3.186545E-02
        47   1  2.071152E+00 -5.140468E-01 -6.237838E-01  2.311136E-01 -1.431205E-01  8.904424E-02
        47   2  1.380928E-01  4.862681E-01  1.392420E+00  5.095927E-01 -4.856035E-01  1.490584E-02
        47   3  7.584087E-01  3.710549E-01  3.905008E-01  3.687077E-01 -3.881887E-01  3.084660E-03
        47   4  6.699952E-02  1.274416E+00  4.666059E-01  4.008625E-01 -5.014137E-01  3.402376E-03
        48   1 -1.587791E+00 -5.387340E-01 -1.364840E+00  2.954366E-01  1.158565E-01  2.204662E-01
        48   2 -4.568743E-01  3.001155E-01  7.930731E-01  9.653131E-02  1.128881E-01 -9.212562E-02
        48   3  1.846007E-01  4.128061E-02  6.717600E-01  2.626102E-01 -6.844445E-02 -1.246027E-01
        48   4 -5.518797E-01 -4.870150E-01 -5.942396E-01  3.779441E-01 -6.103231E-01  1.178926E-01

 internal state variables (elem, integ.pnt.,values) for set EALL and time  0.1000000E+01

        37   1 -4.444117E-05 -4.611019E-05 -4.885377E-05  2.261330E-05 -3.702566E-05 -9.446711E-06 -1.649637E-05 -1.711591E-05 -1.813431E-05  8.393961E-06 -1.374377E-05 -3.506579E-06  6.568236E+02  0.000000E+00
        37   2 -6.780829E-06 -4.208742E-05 -1.083811E-05  2.369646E-05 -1.328192E-04 -2.992384E-06 -2.517015E-06 -1.562267E-05 -4.023060E-06  8.796026E-06 -4.930191E-05 -1.110760E-06  6.568236E+02  0.000000E+00
        37   3 -9.827791E-05 -7.158798E-06  1.795071E-05  1.044932E-05  9.107941E-07  1.524420E-05 -3.817374E-05 -2.780667E-06  6.972531E-06  4.058791E-06  3.537765E-07  5.921251E-06  6.792291E+02  0.000000E+00
        37   4  7.285032E-06 -2.381680E-05 -1.728946E-05  1.147568E-04 -1.557216E-04 -5.429532E-06  2.704173E-06 -8.840696E-06 -6.417773E-06  4.259723E-05 -5.780321E-05 -2.015419E-06  6.568236E+02  0.000000E+00
        38   1 -6.523398E-07 -1.037398E-06  1.632503E-05 -3.111543E-05  1.030243E-05 -1.224117E-05 -2.300687E-07 -3.658719E-07  5.757549E-06 -1.097386E-05  3.633486E-06 -4.317244E-06  6.137920E+02  0.000000E+00
        38   2 -1.519751E-05 -4.810865E-06 -1.106476E-05 -5.759804E-05  1.109836E-04  6.156788E-06 -5.478327E-06 -1.734198E-06 -3.988574E-06 -2.076267E-05  4.000684E-05  2.219370E-06  6.361080E+02  0.000000E+00
        38   3 -1.530813E-05  9.782489E-06  1.740525E-05 -2.831179E-05 -1.515422E-05 -4.976272E-06 -5.398907E-06  3.450111E-06  6.138523E-06 -9.985067E-06 -5.344624E-06 -1.755043E-06  6.137920E+02  0.000000E+00
        38   4 -4.442764E-05 -7.865408E-08 -3.117628E-05 -5.710657E-05 -1.042245E-05  3.039896E-05 -1.601507E-05 -2.835285E-08 -1.123828E-05 -2.058551E-05 -3.757037E-06  1.095807E-05  6.361080E+02  0.000000E+00
        39   1  6.641206E-05 -6.065711E-05 -2.086212E-05  2.880049E-05 -6.016168E-05  1.425842E-05  2.495678E-05 -2.279415E-05 -7.839713E-06  1.082285E-05 -2.260797E-05  5.358127E-06  6.637473E+02  0.000000E+00
        39   2  8.080945E-05 -4.109544E-05 -2.954264E-05  1.506706E-04 -8.711655E-05  3.606667E-05  3.036713E-05 -1.544313E-05 -1.110174E-05  5.662002E-05 -3.273726E-05  1.355338E-05  6.637473E+02  0.000000E+00
        39   3  4.114435E-05  3.650572E-05 -2.383159E-05  1.738396E-05 -1.966778E-04  4.772857E-05  1.626636E-05  1.443249E-05 -9.421789E-06  6.872723E-06 -7.775631E-05  1.886943E-05  6.861527E+02  0.000000E+00
        39   4 -9.392500E-05  6.079358E-05  2.683612E-05  1.517653E-05 -1.466395E-04  3.722112E-05 -3.713312E-05  2.403466E-05  1.060962E-05  6.000019E-06 -5.797375E-05  1.471532E-05  6.861527E+02  0.000000E+00
        40   1 -9.535324E-05  1.097368E-04  1.319917E-04  1.141741E-04 -1.558508E-04 -1.311800E-07 -3.844712E-05  4.424666E-05  5.322002E-05  4.603584E-05 -6.284017E-05 -5.289274E-08  6.930764E+02  0.000000E+00
        40   2 -4.044361E-05  1.325469E-04  7.874301E-05  1.554672E-04 -1.775969E-04 -1.997711E-05 -1.630716E-05  5.344386E-05  3.174976E-05  6.268550E-05 -7.160837E-05 -8.054915E-06  6.930764E+02  0.000000E+00
        40   3 -4.459366E-05  7.888752E-05  1.518709E-04  1.748245E-04 -2.089587E-04 -2.295297E-05 -1.798049E-05  3.180802E-05  6.123545E-05  7.049051E-05 -8.425368E-05 -9.254806E-06  6.930764E+02  0.000000E+00
        40   4  4.467097E-05 -3.415680E-05 -4.337396E-05  1.421233E-04 -1.240758E-04  3.531080E-05  1.701960E-05 -1.301371E-05 -1.652544E-05  5.414886E-05 -4.727277E-05  1.345338E-05  6.706709E+02  0.000000E+00
        41   1  6.761051E-05 -2.930676E-05 -2.404579E-05  1.134692E-04 -1.473660E-04  5.726498E-07  2.509673E-05 -1.087855E-05 -8.925695E-06  4.211927E-05 -5.470162E-05  2.125652E-07  6.568236E+02  0.000000E+00
        41   2  5.895847E-05 -2.720979E-05 -6.078227E-05  9.075584E-05 -2.894455E-05  1.439173E-05  2.188513E-05 -1.010016E-05 -2.256212E-05  3.368818E-05 -1.074409E-05  5.342148E-06  6.568236E+02  0.000000E+00
        41   3  1.336019E-05  1.500536E-05 -3.049309E-05  2.166898E-04 -2.487768E-05  4.198772E-05  5.189453E-06  5.828478E-06 -1.184432E-05  8.416804E-05 -9.663150E-06  1.630914E-05  6.792291E+02  0.000000E+00
        41   4 -5.751456E-05 -3.729540E-05 -5.418899E-05 -2.250650E-06 -2.599846E-05  1.230080E-05 -2.134916E-05 -1.384389E-05 -2.011472E-05 -8.354317E-07 -9.650519E-06  4.566003E-06  6.568236E+02  0.000000E+00
        42   1  6.478956E-06  1.404711E-05  4.712373E-06 -4.724087E-05  3.480070E-05 -5.584700E-06  2.273150E-06  4.928444E-06  1.653342E-06 -1.657452E-05  1.220987E-05 -1.959399E-06  6.068960E+02  0.000000E+00
        42   2 -2.485925E-06  2.886977E-05  6.121508E-06 -2.709435E-05  3.682687E-05 -3.611243E-06 -8.721898E-07  1.012899E-05  2.147739E-06 -9.506085E-06  1.292075E-05 -1.267009E-06  6.068960E+02  0.000000E+00
        42   3 -2.230018E-05  2.790001E-05  2.121526E-05 -1.353852E-05  3.564931E-05 -5.019659E-06 -7.824044E-06  9.788750E-06  7.443398E-06 -4.750005E-06  1.250760E-05 -1.761153E-06  6.068960E+02  0.000000E+00
        42   4  5.139799E-05 -2.344472E-05 -1.769811E-05 -7.626561E-05  7.004151E-05  2.347752E-05  1.838604E-05 -8.386625E-06 -6.330952E-06 -2.728166E-05  2.505518E-05  8.398358E-06  6.292120E+02  0.000000E+00
        43   1 -1.735016E-06  7.018682E-06  3.282795E-05 -4.096095E-05  3.749275E-05 -4.184541E-06 -6.087324E-07  2.462513E-06  1.151773E-05 -1.437120E-05  1.315438E-05 -1.468151E-06  6.068960E+02  0.000000E+00
        43   2  5.163764E-05 -1.295725E-05 -2.810623E-05 -7.683609E-05  7.408342E-05  2.184132E-05  1.847177E-05 -4.635057E-06 -1.005413E-05 -2.748574E-05  2.650105E-05  7.813057E-06  6.292120E+02  0.000000E+00
        43   3  6.656044E-06  4.842654E-06  1.466203E-05 -3.626232E-05  4.920991E-05 -6.122114E-06  2.335281E-06  1.699051E-06  5.144190E-06 -1.272268E-05  1.726536E-05 -2.147951E-06  6.068960E+02  0.000000E+00
        43   4 -2.212313E-05  1.685777E-05  3.219814E-05 -2.961054E-05  2.300794E-05 -6.362022E-06 -7.761928E-06  5.914570E-06  1.129676E-05 -1.038889E-05  8.072364E-06 -2.232123E-06  6.068960E+02  0.000000E+00
        44   1  4.148054E-05 -1.531070E-05 -3.810760E-05 -8.457163E-05  2.392655E-05  8.990420E-06  1.508244E-05 -5.567015E-06 -1.385603E-05 -3.075048E-05  8.699762E-06  3.268942E-06  6.430040E+02  0.000000E+00
        44   2  5.370084E-06  5.419171E-06 -3.256983E-06 -6.724108E-05  1.474237E-05  1.142888E-05  1.905091E-06  1.922505E-06 -1.155447E-06 -2.385445E-05  5.230002E-06  4.054510E-06  6.206880E+02  0.000000E+00
        44   3 -4.756407E-05 -2.400204E-05 -3.242020E-05 -1.367380E-05  2.646471E-05  7.189008E-06 -1.729443E-05 -8.727210E-06 -1.178808E-05 -4.971834E-06  9.622644E-06  2.613944E-06  6.430040E+02  0.000000E+00
        44   4  4.602922E-05 -1.711597E-05 -6.463880E-06 -8.807946E-05  9.205347E-05 -2.915203E-06  1.673635E-05 -6.223417E-06 -2.350285E-06 -3.202594E-05  3.347090E-05 -1.059976E-06  6.430040E+02  0.000000E+00
        45   1  4.015608E-05 -2.661386E-05 -1.130390E-05 -1.703403E-05  4.813341E-05  2.231057E-06  1.447528E-05 -9.593639E-06 -4.074776E-06 -6.140347E-06  1.735091E-05  8.042411E-07  6.361080E+02  0.000000E+00
        45   2 -3.000677E-05  1.524682E-05  1.167685E-05 -8.666595E-06  4.968814E-05  7.277031E-06 -1.058286E-05  5.377283E-06  4.118217E-06 -3.056555E-06  1.752413E-05  2.566480E-06  6.137920E+02  0.000000E+00
        45   3  1.115485E-05  1.219219E-05 -4.921529E-06 -8.367247E-06  4.933535E-05  7.181420E-06  3.934119E-06  4.299971E-06 -1.735736E-06 -2.950980E-06  1.739970E-05  2.532760E-06  6.137920E+02  0.000000E+00
        45   4  4.607182E-05 -1.208631E-05 -1.117367E-05 -8.507663E-05  5.506925E-05  7.564675E-06  1.660775E-05 -4.356817E-06 -4.027832E-06 -3.066803E-05  1.985111E-05  2.726878E-06  6.361080E+02  0.000000E+00
        46   1 -2.822837E-05 -1.183775E-06  8.448142E-06 -9.369189E-06  1.550051E-05  2.953838E-06 -1.001430E-05 -4.199562E-07  2.997063E-06 -3.323814E-06  5.498960E-06  1.047904E-06  6.206880E+02  0.000000E+00
        46   2 -1.256991E-05 -2.650486E-05  5.247316E-07 -1.828636E-05  9.957004E-05 -4.186592E-06 -4.570456E-06 -9.637242E-06  1.907939E-07 -6.648974E-06  3.620395E-05 -1.522257E-06  6.430040E+02  0.000000E+00
        46   3 -3.732888E-05 -2.997317E-05 -3.221836E-05 -1.921954E-05  4.510319E-05 -9.747223E-06 -1.357289E-05 -1.089833E-05 -1.171469E-05 -6.988281E-06  1.639965E-05 -3.544118E-06  6.430040E+02  0.000000E+00
        46   4 -5.656157E-06 -1.076162E-05 -5.034854E-06 -8.412867E-05  1.122945E-04 -6.286281E-06 -2.056595E-06 -3.912956E-06 -1.830687E-06 -3.058942E-05  4.083060E-05 -2.285710E-06  6.430040E+02  0.000000E+00
        47   1  1.530559E-04 -4.968184E-05 -5.965206E-05  7.224344E-05 -4.473780E-05  2.783420E-05  5.831418E-05 -1.892874E-05 -2.272739E-05  2.752469E-05 -1.704506E-05  1.060481E-05  6.706709E+02  0.000000E+00
        47   2 -1.452792E-05  2.437251E-05  1.299527E-04  2.269404E-04 -2.162571E-04  6.638120E-06 -5.857765E-06  9.827172E-06  5.239787E-05  9.150402E-05 -8.719645E-05  2.676538E-06  6.930764E+02  0.000000E+00
        47   3  6.242519E-05  1.914748E-05  2.253696E-05  1.641991E-04 -1.728747E-04  1.373713E-06  2.517029E-05  7.720403E-06  9.087066E-06  6.620628E-05 -6.970435E-05  5.538910E-07  6.930764E+02  0.000000E+00
        47   4 -1.905238E-05  1.158481E-04  2.704827E-05  1.785189E-04 -2.232980E-04  1.515203E-06 -7.682058E-06  4.671081E-05  1.090606E-05  7.198010E-05 -9.003537E-05  6.109410E-07  6.930764E+02  0.000000E+00
        48   1 -7.896029E-05 -5.488931E-06 -6.601180E-05  8.247372E-05  3.234235E-05  6.154508E-05 -2.967224E-05 -2.062669E-06 -2.480637E-05  3.099254E-05  1.215383E-05  2.312783E-05  6.637473E+02  0.000000E+00
        48   2 -5.447610E-05  2.150239E-05  7.320026E-05  3.861900E-05  4.516281E-05 -3.685643E-05 -2.153705E-05  8.500941E-06  2.893962E-05  1.526797E-05  1.785506E-05 -1.457114E-05  6.861527E+02  0.000000E+00
        48   3  6.531352E-06 -7.853575E-06  5.730765E-05  1.050617E-04 -2.738237E-05 -4.984944E-05  2.582161E-06 -3.104900E-06  2.265650E-05  4.153600E-05 -1.082558E-05 -1.970791E-05  6.861527E+02  0.000000E+00
        48   4 -2.358103E-05 -1.903818E-05 -2.770848E-05  1.055064E-04 -1.703771E-04  3.291076E-05 -8.861442E-06 -7.154300E-06 -1.041248E-05  3.964793E-05 -6.402547E-05  1.236743E-05  6.637473E+02  0.000000E+00

 volume (element, volume) for set EALL and time  0.1000000E+01

        37  2.087500E+07
        38  2.079167E+07
        39  2.087500E+07
        40  2.087500E+07
        41  2.087500E+07
        42  2.079167E+07
        43  2.079167E+07
        44  2.079167E+07
        45  2.079167E+07
        46  2.079167E+07
        47  2.087500E+07
        48  2.087500E+07

 displacements (vx,vy,vz) for set NALL and time  0.2000000E+01

         1 -8.440970E-01  6.580636E+00 -8.196297E+00
         2 -4.251506E-01  6.526117E+00  0.000000E+00
         3 -2.208493E-01  0.000000E+00 -8.144292E+00
         4  0.000000E+00  0.000000E+00  0.000000E+00
         5 -1.246171E+01  3.281037E+00 -5.625905E+00
         6 -1.164177E+01  3.285603E+00  0.000000E+00
         7 -1.147079E+01  0.000000E+00 -5.624871E+00
         8 -1.041722E+01  0.000000E+00  0.000000E+00
         9 -6.782150E+00  5.748050E+00  0.000000E+00
        10 -6.037778E+00  0.000000E+00  0.000000E+00
        11 -7.293826E+00  5.776762E+00 -7.853951E+00
        12 -6.580247E+00  0.000000E+00 -7.845796E+00
        13 -1.074163E+01  1.664412E+00  0.000000E+00
        14 -9.553894E+00  4.687138E+00  0.000000E+00
        15 -3.664319E+00  6.228813E+00  0.000000E+00
        16 -1.282690E-01  3.276378E+00  0.000000E+00
        17 -8.560637E+00  0.000000E+00  0.000000E+00
        18 -3.113375E+00  0.000000E+00  0.000000E+00
        19 -1.158725E+01  1.704301E+00 -5.624458E+00
        20 -1.037290E+01  4.628684E+00 -6.861539E+00
        21 -4.066701E+00  6.179605E+00 -8.030643E+00
        22 -4.108140E-01  3.311332E+00 -8.168621E+00
        23 -9.409083E+00  0.000000E+00 -6.904939E+00
        24 -3.443256E+00  0.000000E+00 -8.071383E+00
        25 -5.848401E-01  6.551124E+00 -4.123837E+00
        26 -1.168240E+01  3.278739E+00 -2.882607E+00
        27 -9.856851E-02  0.000000E+00 -4.092758E+00
        28 -1.065042E+01  0.000000E+00 -2.848815E+00
        29 -8.799343E+00  2.336431E+00  0.000000E+00
        30 -6.225367E+00  2.865527E+00  0.000000E+00
        31 -3.279517E+00  3.113465E+00  0.000000E+00
        32 -9.607913E+00  2.309581E+00 -6.872755E+00
        33 -3.608945E+00  3.099002E+00 -8.061880E+00
        34 -6.757450E+00  2.873106E+00 -7.851379E+00
        35 -9.695266E+00  4.654304E+00 -3.432586E+00
        36 -3.784978E+00  6.213389E+00 -4.029281E+00
        37 -6.911235E+00  5.745435E+00 -3.896343E+00
        38 -8.772787E+00  0.000000E+00 -3.472718E+00
        39 -3.214444E+00  0.000000E+00 -4.042462E+00
        40 -6.184447E+00  0.000000E+00 -3.891240E+00
        41 -2.390207E-01  3.308833E+00 -4.122222E+00
        42 -1.086130E+01  1.695289E+00 -2.875692E+00
        43 -6.364779E+00  2.866093E+00 -3.907667E+00
        44 -8.976467E+00  2.340920E+00 -3.453227E+00
        45 -3.381064E+00  3.107481E+00 -4.032464E+00

 stresses (elem, integ.pnt.,sxx,syy,szz,sxy,sxz,syz) for set EALL and time  0.2000000E+01

        37   1 -1.374500E+00 -1.313412E+00 -1.292815E+00  1.166085E-01 -2.073689E-01 -4.098708E-02
        37   2 -3.557481E-01 -9.264450E-01 -3.403274E-01  1.275071E-01 -6.705463E-01 -1.214968E-02
        37   3 -1.273980E+00 -4.252091E-02  2.460955E-01  4.241107E-02 -2.555120E-02  3.815156E-02
        37   4 -1.497822E-02 -5.074968E-01 -3.579868E-01  5.896802E-01 -7.751539E-01 -2.261250E-02
        38   1  1.129910E-01  1.496250E-02  6.723076E-01 -3.165697E-01  9.933861E-02 -1.360961E-01
        38   2 -6.315449E-01 -3.854710E-01 -6.373483E-01 -3.370638E-01  7.056838E-01  5.862241E-02
        38   3 -5.347881E-01  4.102705E-01  6.962513E-01 -2.976424E-01 -1.885917E-01 -5.765513E-02
        38   4 -1.693182E+00 -5.717249E-01 -1.449991E+00 -3.601819E-01 -7.881315E-02  2.214051E-01
        39   1  9.913067E-01 -8.556098E-01 -3.098558E-01  1.334085E-01 -3.173209E-01  5.301004E-02
        39   2  1.272344E+00 -4.812324E-01 -3.429012E-01  6.496815E-01 -4.208369E-01  1.364557E-01
        39   3  5.174304E-01  6.697912E-01 -2.183483E-02  6.344399E-02 -4.958201E-01  1.000824E-01
        39   4 -9.437388E-01  7.644945E-01  4.074911E-01  5.097741E-02 -3.724040E-01  7.988610E-02
        40   1 -6.085944E-01  1.237448E+00  1.357025E+00  2.391209E-01 -3.323780E-01 -6.027703E-03
        40   2 -3.214533E-02  1.500602E+00  9.094847E-01  3.203598E-01 -3.790900E-01 -5.275543E-02
        40   3 -7.626997E-02  1.000286E+00  1.608789E+00  3.894706E-01 -4.366906E-01 -5.965284E-02
        40   4  5.366942E-01 -3.921263E-01 -4.748089E-01  5.397482E-01 -4.733178E-01  1.065902E-01
        41   1  1.226824E+00 -4.427127E-01 -3.084359E-01  6.051106E-01 -7.362246E-01  1.092467E-03
        41   2  9.593217E-01 -5.672783E-01 -1.089124E+00  4.928817E-01 -1.592166E-01  6.005073E-02
        41   3  2.088462E-01  2.890974E-01 -5.063855E-02  6.411276E-01 -1.006548E-01  9.532740E-02
        41   4 -1.606095E+00 -1.210611E+00 -1.421949E+00  5.286339E-02 -1.211530E-01  5.224911E-02
        42   1  5.770627E-01  9.605134E-01  4.936262E-01 -5.784433E-01  4.288638E-01 -6.233901E-02
        42   2  2.460552E-01  1.771187E+00  6.704684E-01 -3.481585E-01  4.757337E-01 -3.667015E-02
        42   3 -7.890216E-01  1.663333E+00  1.288538E+00 -1.814399E-01  4.417052E-01 -6.061016E-02
        42   4  1.652278E+00 -8.385107E-01 -5.757625E-01 -5.407605E-01  4.986593E-01  2.037199E-01
        43   1  3.536115E-01  7.915063E-01  1.961301E+00 -5.151057E-01  4.824692E-01 -4.325515E-02
        43   2  1.663130E+00 -4.411668E-01 -9.636105E-01 -5.582252E-01  5.143362E-01  1.907048E-01
        43   3  5.966582E-01  5.181923E-01  9.661994E-01 -4.506851E-01  5.976230E-01 -7.068067E-02
        43   4 -7.766367E-01  1.118627E+00  1.813988E+00 -3.772053E-01  2.869407E-01 -7.739658E-02
        44   1  9.645477E-01 -4.880411E-01 -1.046963E+00 -4.454684E-01  1.157020E-01  5.707644E-02
        44   2  2.493711E-01  1.916765E-01 -2.822186E-01 -6.258566E-01  1.175902E-01  1.240727E-01
        44   3 -1.667523E+00 -1.178719E+00 -1.371376E+00 -2.106781E-02  1.582544E-01  4.765774E-02
        44   4  1.245721E+00 -3.472324E-01 -1.261548E-01 -4.453443E-01  4.719756E-01 -1.317317E-02
        45   1  1.072202E+00 -8.842357E-01 -3.453555E-01 -9.963149E-02  2.480780E-01  1.807779E-02
        45   2 -1.283904E+00  5.168245E-01  3.446725E-01 -8.334827E-02  5.227911E-01  8.750685E-02
        45   3  6.565288E-01  5.760043E-01 -1.024805E-01 -7.929193E-02  5.302660E-01  8.508793E-02
        45   4  1.344475E+00 -3.481350E-01 -2.179330E-01 -5.328035E-01  2.955806E-01  5.762268E-02
        46   1 -1.289485E+00 -4.302375E-01 -5.579904E-02 -7.692967E-02  1.179482E-01  3.178345E-02
        46   2 -4.901653E-01 -9.302135E-01 -2.605282E-01 -9.056811E-02  5.204152E-01 -2.342274E-02
        46   3 -1.352855E+00 -1.327961E+00 -1.332060E+00 -1.028644E-01  2.284325E-01 -5.764004E-02
        46   4 -2.254525E-01 -4.573120E-01 -3.054355E-01 -4.400622E-01  5.913650E-01 -3.588221E-02
        47   1  2.232303E+00 -4.351506E-01 -5.279300E-01  3.191803E-01 -2.159928E-01  9.605455E-02
        47   2  1.152587E-01  4.713441E-01  1.329143E+00  4.993675E-01 -4.568814E-01  3.302343E-03
        47   3  7.367661E-01  3.674191E-01  3.726793E-01  3.650095E-01 -3.702844E-01  3.136528E-03
        47   4  2.001611E-02  1.255409E+00  4.350430E-01  3.905971E-01 -4.808274E-01 -1.449144E-02
        48   1 -1.699787E+00 -4.646968E-01 -1.295367E+00  3.636839E-01  1.184189E-01  2.345752E-01
        48   2 -4.670946E-01  4.650750E-01  9.669543E-01  1.058898E-01  8.042965E-02 -9.189195E-02
        48   3  2.107480E-01  1.586837E-01  8.606122E-01  2.888647E-01 -8.914598E-02 -1.337279E-01
        48   4 -5.748783E-01 -4.447541E-01 -4.945371E-01  4.861683E-01 -7.116724E-01  1.166745E-01

 internal state variables (elem, integ.pnt.,values) for set EALL and time  0.2000000E+01

        37   1 -1.338768E-04 -1.330946E-04 -1.390456E-04  7.011957E-05 -1.189024E-04 -2.736916E-05 -5.271095E-05 -5.253387E-05 -5.492909E-05  2.756297E-05 -4.664917E-05 -1.080051E-05  6.568236E+02  4.532816E-01
        37   2 -2.124485E-05 -1.210438E-04 -2.824724E-05  7.480089E-05 -4.082741E-04 -8.462076E-06 -8.346247E-06 -4.778764E-05 -1.122090E-05  2.937417E-05 -1.605647E-04 -3.344195E-06  6.568236E+02  4.532816E-01
        37   3 -2.728187E-04 -3.774813E-06  6.641740E-05  3.335737E-05 -7.582933E-06  4.015608E-05 -1.160274E-04 -2.198845E-06  2.763529E-05  1.402623E-05 -2.852204E-06  1.715772E-05  6.792291E+02  6.834208E-01
        37   4  1.955614E-05 -6.771969E-05 -4.714475E-05  3.553217E-04 -4.759317E-04 -1.549529E-05  7.753630E-06 -2.675383E-05 -1.867346E-05  1.396830E-04 -1.872334E-04 -6.120315E-06  6.568236E+02  4.532816E-01
        38   1 -1.063497E-06 -4.728435E-06  4.867545E-05 -9.720521E-05  3.153261E-05 -3.961745E-05 -3.952001E-07 -1.699637E-06  1.767057E-05 -3.524241E-05  1.143881E-05 -1.434999E-05  6.137920E+02  2.060098E-01
        38   2 -4.662690E-05 -1.636538E-05 -3.993115E-05 -1.668856E-04  3.314227E-04  2.180078E-05 -1.751353E-05 -6.122705E-06 -1.490798E-05 -6.283268E-05  1.246232E-04  8.144529E-06  6.361080E+02  3.100960E-01
        38   3 -4.755703E-05  2.866225E-05  5.236453E-05 -8.958936E-05 -5.143972E-05 -1.638264E-05 -1.724475E-05  1.041044E-05  1.900496E-05 -3.246995E-05 -1.860936E-05 -5.931376E-06  6.137920E+02  2.060098E-01
        38   4 -1.360747E-04 -3.750335E-06 -1.023589E-04 -1.700201E-04 -3.332337E-05  9.570869E-05 -5.111455E-05 -1.355555E-06 -3.834549E-05 -6.393975E-05 -1.249621E-05  3.591218E-05  6.361080E+02  3.100960E-01
        39   1  1.903026E-04 -1.671294E-04 -5.808264E-05  8.893742E-05 -1.965698E-04  4.039128E-05  7.663077E-05 -6.747912E-05 -2.343428E-05  3.564081E-05 -7.850425E-05  1.627723E-05  6.637473E+02  5.146026E-01
        39   2  2.301508E-04 -1.114745E-04 -8.171955E-05  4.518094E-04 -2.738496E-04  1.028305E-04  9.271461E-05 -4.505737E-05 -3.298562E-05  1.813944E-04 -1.096221E-04  4.142154E-05  6.637473E+02  5.146026E-01
        39   3  1.068829E-04  1.142611E-04 -5.816132E-05  5.504114E-05 -5.339193E-04  1.214708E-04  4.703618E-05  4.941424E-05 -2.576278E-05  2.378013E-05 -2.339345E-04  5.356848E-05  6.861527E+02  7.758756E-01
        39   4 -2.581076E-04  1.773166E-04  8.468928E-05  4.628751E-05 -3.991728E-04  9.546387E-05 -1.129548E-04  7.716493E-05  3.659964E-05  2.006293E-05 -1.748491E-04  4.206590E-05  6.861527E+02  7.758756E-01
        40   1 -2.570023E-04  2.923401E-04  3.471585E-04  2.974886E-04 -4.087394E-04 -2.903806E-06 -1.162021E-04  1.323477E-04  1.573863E-04  1.350090E-04 -1.853631E-04 -1.188138E-06  6.930764E+02  8.808380E-01
        40   2 -1.062722E-04  3.543683E-04  2.011516E-04  4.027455E-04 -4.659206E-04 -5.691319E-05 -4.818415E-05  1.603666E-04  9.149185E-05  1.828958E-04 -2.112873E-04 -2.558276E-05  6.930764E+02  8.808380E-01
        40   3 -1.206856E-04  2.061632E-04  4.012545E-04  4.659055E-04 -5.440367E-04 -6.496312E-05 -5.454315E-05  9.353161E-05  1.818202E-04  2.109155E-04 -2.469209E-04 -2.922106E-05  6.930764E+02  8.808380E-01
        40   4  1.246873E-04 -8.770881E-05 -1.115495E-04  4.203324E-04 -3.676159E-04  9.583266E-05  5.141368E-05 -3.640509E-05 -4.629469E-05  1.725795E-04 -1.509158E-04  3.960123E-05  6.706709E+02  5.842194E-01
        41   1  1.956722E-04 -8.470820E-05 -6.729950E-05  3.568231E-04 -4.510574E-04  1.312541E-06  7.722177E-05 -3.343252E-05 -2.661340E-05  1.401530E-04 -1.774331E-04  5.260782E-07  6.568236E+02  4.532816E-01
        41   2  1.729746E-04 -7.894649E-05 -1.744405E-04  2.876120E-04 -9.223102E-05  4.110058E-05  6.820924E-05 -3.115147E-05 -6.887719E-05  1.129204E-04 -3.620038E-05  1.623320E-05  6.568236E+02  4.532816E-01
        41   3  3.675989E-05  4.683814E-05 -6.286960E-05  6.062454E-04 -7.930327E-05  1.071046E-04  1.564575E-05  1.972877E-05 -2.754077E-05  2.576571E-04 -3.334939E-05  4.589916E-05  6.792291E+02  6.834208E-01
        41   4 -1.699665E-04 -1.085261E-04 -1.548998E-04  9.069793E-06 -7.740220E-05  3.535896E-05 -6.699464E-05 -4.281586E-05 -6.117623E-05  3.213905E-06 -3.049602E-05  1.396001E-05  6.568236E+02  4.532816E-01
        42   1  2.066866E-05  4.536650E-05  1.542860E-05 -1.518399E-04  1.121447E-04 -1.731266E-05  7.427761E-06  1.629878E-05  5.541254E-06 -5.455751E-05  4.029220E-05 -6.225995E-06  6.068960E+02  1.815532E-01
        42   2 -7.609773E-06  9.303441E-05  2.066506E-05 -8.881571E-05  1.209842E-04 -1.081092E-05 -2.737481E-06  3.342609E-05  7.416783E-06 -3.189769E-05  4.344864E-05 -3.891198E-06  6.068960E+02  1.815532E-01