    1C
    1UUSER                                                              
    1UDATE              17.july.2018                                    
    1UTIME              15:21:10                                        
    1UHOST                                                              
    1UPGM               CalculiX                                        
    1UVERSION           Version 2.14                             
    1UCOMPILETIME       Tue Jul 17 10:10:03 DST 2018                    
    1UDIR                                                               
    1UDBN                                                               
    1UMAT    1ABAQUSATR2E                                               
    2C                            45                                     1
 -1         1 1.00000E+03 5.00000E+02 0.00000E+00
 -1         2 1.00000E+03 5.00000E+02 5.00000E+02
 -1         3 1.00000E+03 0.00000E+00 0.00000E+00
 -1         4 1.00000E+03 0.00000E+00 5.00000E+02
 -1         5 0.00000E+00 5.00000E+02 0.00000E+00
 -1         6 0.00000E+00 5.00000E+02 5.00000E+02
 -1         7 0.00000E+00 0.00000E+00 0.00000E+00
 -1         8 0.00000E+00 0.00000E+00 5.00000E+02
 -1         9 5.01000E+02 5.00000E+02 5.00000E+02
 -1        10 5.01000E+02 0.00000E+00 5.00000E+02
 -1        11 5.01000E+02 5.00000E+02 0.00000E+00
 -1        12 5.01000E+02 0.00000E+00 0.00000E+00
 -1        13 0.00000E+00 2.50000E+02 5.00000E+02
 -1        14 2.50500E+02 5.00000E+02 5.00000E+02
 -1        15 7.50500E+02 5.00000E+02 5.00000E+02
 -1        16 1.00000E+03 2.50000E+02 5.00000E+02
 -1        17 2.50500E+02 0.00000E+00 5.00000E+02
 -1        18 7.50500E+02 0.00000E+00 5.00000E+02
 -1        19 0.00000E+00 2.50000E+02 0.00000E+00
 -1        20 2.50500E+02 5.00000E+02 0.00000E+00
 -1        21 7.50500E+02 5.00000E+02 0.00000E+00
 -1        22 1.00000E+03 2.50000E+02 0.00000E+00
 -1        23 2.50500E+02 0.00000E+00 0.00000E+00
 -1        24 7.50500E+02 0.00000E+00 0.00000E+00
 -1        25 1.00000E+03 5.00000E+02 2.50000E+02
 -1        26 0.00000E+00 5.00000E+02 2.50000E+02
 -1        27 1.00000E+03 0.00000E+00 2.50000E+02
 -1        28 0.00000E+00 0.00000E+00 2.50000E+02
 -1        29 2.50500E+02 2.50000E+02 5.00000E+02
 -1        30 5.01000E+02 2.50000E+02 5.00000E+02
 -1        31 7.50500E+02 2.50000E+02 5.00000E+02
 -1        32 2.50500E+02 2.50000E+02 0.00000E+00
 -1        33 7.50500E+02 2.50000E+02 0.00000E+00
 -1        34 5.01000E+02 2.50000E+02 0.00000E+00
 -1        35 2.50500E+02 5.00000E+02 2.50000E+02
 -1        36 7.50500E+02 5.00000E+02 2.50000E+02
 -1        37 5.01000E+02 5.00000E+02 2.50000E+02
 -1        38 2.50500E+02 0.00000E+00 2.50000E+02
 -1        39 7.50500E+02 0.00000E+00 2.50000E+02
 -1        40 5.01000E+02 0.00000E+00 2.50000E+02
 -1        41 1.00000E+03 2.50000E+02 2.50000E+02
 -1        42 0.00000E+00 2.50000E+02 2.50000E+02
 -1        43 5.01000E+02 2.50000E+02 2.50000E+02
 -1        44 2.50500E+02 2.50000E+02 2.50000E+02
 -1        45 7.50500E+02 2.50000E+02 2.50000E+02
 -3
    3C                            12                                     1
 -1        37    6    0    1
 -2        10        12         8        11        40        38        17        43        34        44
 -1        38    6    0    1
 -2         2        11         4        10        36        45        16        31        43        18
 -1        39    6    0    1
 -2        12        11         7         8        34        32        23        38        44        28
 -1        40    6    0    1
 -2         8         7         6        11        28        42        13        44        32        35
 -1        41    6    0    1
 -2        11         9         6        10        37        14        35        43        30        29
 -1        42    6    0    1
 -2         1         3         4        11        22        27        41        21        33        45
 -1        43    6    0    1
 -2         2        11         1         4        36        21        25        16        45        41
 -1        44    6    0    1
 -2         9         2        10        11        15        31        30        37        36        43
 -1        45    6    0    1
 -2        12         4         3        11        39        27        24        34        45        33
 -1        46    6    0    1
 -2         4        12        10        11        39        40        18        45        34        43
 -1        47    6    0    1
 -2        11         6         5         7        35        26        20        32        42        19
 -1        48    6    0    1
 -2        10         8         6        11        17        13        29        43        44        35
 -3
    1PSTEP                         1           1           1          
  100CL  101 1.000000000          45                     0    1           1
 -4  DISP        4    1
 -5  D1          1    2    1    0
 -5  D2          1    2    2    0
 -5  D3          1    2    3    0
 -5  ALL         1    2    0    0    1ALL
 -1         1 1.58371E-01 6.94823E+00-8.57932E+00
 -1         2 5.12380E-03 6.91644E+00 0.00000E+00
 -1         3 2.65215E-01 0.00000E+00-8.54899E+00
 -1         4 0.00000E+00 0.00000E+00 0.00000E+00
 -1         5-1.38653E+01 6.13658E+00-8.75252E+00
 -1         6-1.38039E+01 6.14170E+00 0.00000E+00
 -1         7-1.35646E+01 0.00000E+00-8.75552E+00
 -1         8-1.33822E+01 0.00000E+00 0.00000E+00
 -1         9-7.04823E+00 6.97740E+00 0.00000E+00
 -1        10-6.87663E+00 0.00000E+00 0.00000E+00
 -1        11-6.95263E+00 6.99301E+00-9.17265E+00
 -1        12-6.79418E+00 0.00000E+00-9.16744E+00
 -1        13-1.34965E+01 3.08110E+00 0.00000E+00
 -1        14-1.05474E+01 6.65124E+00 0.00000E+00
 -1        15-3.49394E+00 6.99546E+00 0.00000E+00
 -1        16-1.10836E-02 3.46640E+00 0.00000E+00
 -1        17-1.02451E+01 0.00000E+00 0.00000E+00
 -1        18-3.42885E+00 0.00000E+00 0.00000E+00
 -1        19-1.35723E+01 3.10042E+00-8.75222E+00
 -1        20-1.06135E+01 6.61794E+00-9.02800E+00
 -1        21-3.33578E+00 6.97018E+00-8.87805E+00
 -1        22 2.19625E-01 3.48644E+00-8.56332E+00
 -1        23-1.03232E+01 0.00000E+00-9.05209E+00
 -1        24-3.22698E+00 0.00000E+00-8.89912E+00
 -1        25 1.33123E-02 6.93125E+00-4.30476E+00
 -1        26-1.37335E+01 6.13590E+00-4.41188E+00
 -1        27 4.06791E-02 0.00000E+00-4.28704E+00
 -1        28-1.34127E+01 0.00000E+00-4.39542E+00
 -1        29-1.03167E+01 3.32106E+00 0.00000E+00
 -1        30-6.92308E+00 3.48414E+00 0.00000E+00
 -1        31-3.46205E+00 3.49787E+00 0.00000E+00
 -1        32-1.03748E+01 3.30533E+00-9.03416E+00
 -1        33-3.25965E+00 3.49059E+00-8.89413E+00
 -1        34-6.83356E+00 3.48825E+00-9.17077E+00
 -1        35-1.05330E+01 6.63191E+00-4.51369E+00
 -1        36-3.46691E+00 6.98770E+00-4.44744E+00
 -1        37-7.02597E+00 6.97597E+00-4.56974E+00
 -1        38-1.02658E+01 0.00000E+00-4.53537E+00
 -1        39-3.38941E+00 0.00000E+00-4.45422E+00
 -1        40-6.86313E+00 0.00000E+00-4.56656E+00
 -1        41 2.38694E-02 3.48483E+00-4.30371E+00
 -1        42-1.34675E+01 3.09625E+00-4.40860E+00
 -1        43-6.90348E+00 3.48460E+00-4.57572E+00
 -1        44-1.03189E+01 3.32229E+00-4.52477E+00
 -1        45-3.42252E+00 3.49521E+00-4.44908E+00
 -3
    1PSTEP                         2           1           1          
  100CL  101 1.000000000          45                     0    1           1
 -4  STRESS      6    1
 -5  SXX         1    4    1    1
 -5  SYY         1    4    2    2
 -5  SZZ         1    4    3    3
 -5  SXY         1    4    1    2
 -5  SYZ         1    4    2    3
 -5  SZX         1    4    3    1
 -1         1 5.82514E-01 5.88608E-01 5.59427E-01-4.47939E-01-1.23802E-01 4.29589E-01
 -1         2 4.12167E-01 6.28837E-01 1.46825E+00-4.34525E-01-6.32111E-02 1.14525E-01
 -1         3 3.02446E-01 1.64088E+00 2.85041E-01-4.92820E-02-7.08924E-04 4.07499E-01
 -1         4-1.60274E+00 1.13813E+00 1.38564E+00-1.96520E-02-3.95954E-02 3.73284E-02
 -1         5 7.58086E-01 3.29805E-01 3.70800E-01 3.57751E-01-2.72298E-02-3.98824E-01
 -1         6 1.48918E-01 7.98386E-01 1.78010E+00 5.70825E-01-6.13845E-02-2.65828E-01
 -1         7-5.08619E-02 1.96795E+00 5.43043E-01 2.11564E-01 4.52928E-03-5.71919E-01
 -1         8-1.54566E+00 1.09393E+00 1.34054E+00-6.54136E-02-1.46188E-02 3.14113E-02
 -1         9 1.62298E+00-5.01758E-01-1.28789E+00-6.71194E-02 5.70436E-02 1.33666E-02
 -1        10-2.59075E+00-1.46786E+00-2.18992E+00-3.46526E-02 1.22791E-01 5.44023E-02
 -1        11 1.59303E+00-8.94613E-01-8.78673E-01-2.71243E-02 1.10562E-01 4.17860E-02
 -1        12 7.92702E-01-1.32236E+00-3.10189E-01 5.63452E-03-1.84643E-02 5.48909E-03
 -1        13-9.70603E-02 1.08473E+00 2.08751E+00 1.79544E-01-1.71439E-01-1.14038E-01
 -1        14 8.92080E-01 1.70156E-01-5.99520E-01 6.45644E-01 1.25497E-01 6.50287E-02
 -1        15 9.22572E-01 2.42580E-01-3.42735E-01-5.92412E-01 9.90083E-02 1.26033E-03
 -1        16-2.85817E-01 8.52120E-01 1.90015E+00-2.42084E-01-1.43841E-01-1.86643E-02
 -1        17-1.72939E+00-4.23614E-01-6.26879E-01 2.21763E-02 6.00206E-02 3.17360E-01
 -1        18-1.44159E+00-2.84400E-01-5.25286E-01-1.24189E-01 6.07862E-02-2.13450E-01
 -1        19-1.49333E-02 1.33979E+00 4.55888E-01 3.93701E-01-2.68745E-02-5.25413E-01
 -1        20 2.22578E+00-6.59769E-01-7.63206E-01 2.03916E-01 6.88761E-02-1.24829E-01
 -1        21 1.61046E+00-5.00015E-01-6.40492E-01-5.54985E-01 1.00908E-01 5.01724E-01
 -1        22 2.69723E-01 1.46537E+00 5.03185E-01-3.79108E-01-1.02407E-01 3.05920E-01
 -1        23 1.08152E+00-3.62178E-01-3.26158E-01-5.98913E-02 6.91632E-02-3.62370E-01
 -1        24 1.11553E+00-1.43792E-01-2.87192E-01 3.69781E-02 2.68687E-02 3.31256E-01
 -1        25 3.36059E-01 6.03943E-01 1.58945E+00-3.53043E-01-1.03746E-01 4.50547E-01
 -1        26 6.45515E-02 4.58618E-01 1.49098E+00 5.15265E-01-1.40133E-02-5.07737E-01
 -1        27-9.98330E-01 1.56555E+00 7.88422E-01 2.11500E-02-7.72377E-03 4.02915E-01
 -1        28-8.07319E-01 1.70020E+00 9.82493E-01 4.76016E-02 3.02834E-02-4.34660E-01
 -1        29-1.23835E+00-4.07646E-01-7.77281E-01 2.66386E-01 9.28494E-02 1.35167E-01
 -1        30-8.78214E-01-1.14309E+00-1.60859E+00-7.50760E-02 4.72435E-02 2.71748E-02
 -1        31-1.14845E+00-3.44564E-01-5.33015E-01-2.45245E-01 7.39685E-02-5.93424E-02
 -1        32 1.13367E+00 1.55953E-01-5.67965E-01 3.72596E-01 9.89508E-02-3.70784E-01
 -1        33 1.33954E+00 1.86445E-01-2.59632E-01-4.11377E-01 9.31012E-02 4.07690E-01
 -1        34 1.08488E+00-8.86176E-01-3.09163E-01 2.81621E-02 6.16096E-03-1.81315E-02
 -1        35 9.05432E-01-2.35547E-01 2.23297E-01 5.01124E-01 4.10202E-02-4.47435E-01
 -1        36 9.25210E-01 1.92424E-02 2.90156E-01-4.78541E-01 1.80188E-02 4.95961E-01
 -1        37 1.91807E+00-3.74653E-01-4.58519E-01-2.60536E-02-7.72580E-03-5.95146E-02
 -1        38-7.52359E-01-3.24646E-01 1.37813E-01-6.80033E-02 4.14626E-02-2.06429E-01
 -1        39-6.46603E-01-2.45159E-01 2.51228E-01 3.23179E-02 2.67517E-02 2.94851E-01
 -1        40-8.74877E-01-1.35571E+00-1.06025E+00-7.14377E-04-5.04548E-02 1.11387E-02
 -1        41-6.22660E-01 1.14565E+00 1.26927E+00-2.34088E-01-1.22079E-01 2.95233E-01
 -1        42-3.70784E-01 1.66282E+00 1.74663E+00 4.65754E-01-6.32315E-02-5.52876E-01
 -1        43-8.97267E-01-9.12294E-01-1.22258E+00 4.20323E-03 6.58716E-02-6.18901E-03
 -1        44-3.17830E-01-5.32737E-03 1.00658E-01 3.29632E-01 6.78708E-02-3.44193E-01
 -1        45-6.57122E-02 1.51811E-01 2.09655E-01-3.40256E-01 5.07330E-02 3.68289E-01
 -3
    1PSTEP                         3           1           1          
  100CL  101 1.000000000          45                     0    1           1
 -4  TOSTRAIN    6    1
 -5  EXX         1    4    1    1
 -5  EYY         1    4    2    2
 -5  EZZ         1    4    3    3
 -5  EXY         1    4    1    2
 -5  EYZ         1    4    2    3
 -5  EZX         1    4    3    1
 -1         1 1.37586E-02 1.37680E-02 1.70082E-02-1.35849E-04-4.02219E-05 1.30367E-04
 -1         2 1.38142E-02 1.38535E-02 1.72491E-02-1.33227E-04-2.11350E-05 2.95006E-05
 -1         3 1.37428E-02 1.39667E-02 1.69974E-02-9.74227E-06-9.05722E-07 1.24575E-04
 -1         4 1.35019E-02 1.39459E-02 1.72426E-02-1.63951E-07-1.30850E-05 3.78038E-06
 -1         5 1.21644E-02 1.20160E-02 1.72199E-02 1.95345E-04-1.20298E-05-2.14723E-04
 -1         6 1.21292E-02 1.22833E-02 1.77689E-02 2.99940E-04-2.88600E-05-1.53083E-04
 -1         7 1.19877E-02 1.24910E-02 1.73276E-02 1.24365E-04 4.18837E-06-3.04815E-04
 -1         8 1.18271E-02 1.24787E-02 1.77762E-02-1.63468E-05-4.56201E-06-5.00383E-06
 -1         9 1.44046E-02 1.39911E-02 1.82124E-02-2.82741E-05 2.13183E-05 6.55753E-06
 -1        10 1.37917E-02 1.40087E-02 1.82393E-02-1.73006E-05 4.85739E-05 2.52456E-05
 -1        11 1.45741E-02 1.40774E-02 1.84763E-02-1.52295E-06 4.30572E-05 8.01822E-06
 -1        12 1.43388E-02 1.39198E-02 1.85069E-02 9.44996E-07-8.09312E-06 2.08391E-06
 -1        13 1.19705E-02 1.22833E-02 1.77566E-02 1.07854E-04-8.09404E-05-7.43285E-05
 -1        14 1.34842E-02 1.33388E-02 1.79882E-02 2.93953E-04 5.71165E-05 2.22500E-05
 -1        15 1.41348E-02 1.40085E-02 1.77232E-02-2.03565E-04 3.39766E-05-2.98096E-06
 -1        16 1.36524E-02 1.38327E-02 1.72578E-02-7.09394E-05-4.76577E-05-1.20530E-05
 -1        17 1.29851E-02 1.32832E-02 1.80646E-02 1.07634E-05 2.49641E-05 1.35910E-04
 -1        18 1.37807E-02 1.39786E-02 1.77509E-02-4.10885E-05 2.13266E-05-7.60471E-05
 -1        19 1.19478E-02 1.22730E-02 1.72319E-02 2.14356E-04-1.18420E-05-2.81669E-04
 -1        20 1.37977E-02 1.31218E-02 1.79146E-02 9.17321E-05 3.02188E-05-5.60404E-05
 -1        21 1.42504E-02 1.38958E-02 1.76912E-02-1.86343E-04 3.52786E-05 1.68917E-04
 -1        22 1.36989E-02 1.38963E-02 1.69881E-02-1.14274E-04-3.35598E-05 9.16937E-05
 -1        23 1.35137E-02 1.31881E-02 1.79961E-02-2.34229E-05 3.44117E-05-1.74814E-04
 -1        24 1.41470E-02 1.39292E-02 1.77293E-02 1.43743E-05 8.54679E-06 1.10990E-04
 -1        25 1.37028E-02 1.37528E-02 1.71585E-02-1.06062E-04-3.38801E-05 1.36818E-04
 -1        26 1.19599E-02 1.20299E-02 1.75049E-02 2.78644E-04-5.04044E-06-2.72321E-04
 -1        27 1.35525E-02 1.39728E-02 1.70978E-02 1.23414E-05-3.10264E-06 1.23151E-04
 -1        28 1.18544E-02 1.24751E-02 1.75108E-02 4.09121E-05 1.79560E-05-2.33582E-04
 -1        29 1.31092E-02 1.32727E-02 1.80121E-02 1.34259E-04 3.85259E-05 5.07599E-05
 -1        30 1.40071E-02 1.39547E-02 1.82363E-02-3.79562E-05 1.75392E-05 1.18822E-05
 -1        31 1.38152E-02 1.39653E-02 1.77472E-02-7.84984E-05 2.68577E-05-2.46691E-05
 -1        32 1.35243E-02 1.33243E-02 1.79533E-02 1.66393E-04 4.37889E-05-1.74069E-04
 -1        33 1.41823E-02 1.39814E-02 1.77298E-02-1.43063E-04 3.18715E-05 1.37979E-04
 -1        34 1.43776E-02 1.39859E-02 1.84881E-02 2.03140E-05 1.93887E-06-9.02369E-06
 -1        35 1.34674E-02 1.32154E-02 1.81556E-02 2.30856E-04 1.76285E-05-1.98552E-04
 -1        36 1.41169E-02 1.39584E-02 1.78257E-02-1.63240E-04 5.96524E-06 1.73559E-04
 -1        37 1.44298E-02 1.39836E-02 1.83451E-02-1.14278E-05-3.65790E-06-2.89982E-05
 -1        38 1.31290E-02 1.32560E-02 1.81737E-02-2.65018E-05 1.97559E-05-9.07329E-05
 -1        39 1.38913E-02 1.39477E-02 1.78575E-02 1.34693E-05 8.83598E-06 1.01436E-04
 -1        40 1.40028E-02 1.39052E-02 1.83347E-02-1.01266E-06-1.97583E-05-1.00925E-06
 -1        41 1.35671E-02 1.38541E-02 1.71214E-02-6.87618E-05-3.96814E-05 8.82177E-05
 -1        42 1.17993E-02 1.23154E-02 1.75402E-02 2.55437E-04-3.07506E-05-2.99571E-04
 -1        43 1.40393E-02 1.40341E-02 1.83503E-02 2.89708E-06 2.66871E-05-1.16725E-05
 -1        44 1.32033E-02 1.33007E-02 1.81471E-02 1.39369E-04 3.03768E-05-1.46362E-04
 -1        45 1.39740E-02 1.39987E-02 1.78292E-02-1.19839E-04 1.74801E-05 1.29247E-04
 -3
    1PSTEP                         4           1           1          
  100CL  101 1.000000000          45                     0    1           1
 -4  ERROR       1    1
 -5  STR(%)      1    1    0    0
 -1         1 8.24233E+00
 -1         2 2.62382E+01
 -1         3 1.85343E+01
 -1         4 2.62382E+01
 -1         5 1.37516E+01
 -1         6 2.70777E+01
 -1         7 1.78550E+01
 -1         8 2.70777E+01
 -1         9 2.27630E+01
 -1        10 2.70777E+01
 -1        11 2.70777E+01
 -1        12 1.85343E+01
 -1        13 2.70777E+01
 -1        14 2.49203E+01
 -1        15 2.45006E+01
 -1        16 2.62382E+01
 -1        17 2.70777E+01
 -1        18 2.66579E+01
 -1        19 1.58033E+01
 -1        20 2.04146E+01
 -1        21 1.76600E+01
 -1        22 1.33883E+01
 -1        23 1.81946E+01
 -1        24 1.85343E+01
 -1        25 1.72403E+01
 -1        26 2.04146E+01
 -1        27 2.23862E+01
 -1        28 2.24663E+01
 -1        29 2.70777E+01
 -1        30 2.49203E+01
 -1        31 2.66579E+01
 -1        32 2.24663E+01
 -1        33 2.28060E+01
 -1        34 2.28060E+01
 -1        35 2.70777E+01
 -1        36 2.66579E+01
 -1        37 2.49203E+01
 -1        38 2.28060E+01
 -1        39 2.23862E+01
 -1        40 2.28060E+01
 -1        41 1.72403E+01
 -1        42 2.24663E+01
 -1        43 2.70777E+01
 -1        44 2.70777E+01
 -1        45 2.66579E+01
 -3
    1PSTEP                         5           2           1          
  100CL  102 2.000000000          45                     0    2           1
 -4  DISP        4    1
 -5  D1          1    2    1    0
 -5  D2          1    2    2    0
 -5  D3          1    2    3    0
 -5  ALL         1    2    0    0    1ALL
 -1         1-8.44097E-01 6.58064E+00-8.19630E+00
 -1         2-4.25151E-01 6.52612E+00 0.00000E+00
 -1         3-2.20849E-01 0.00000E+00-8.14429E+00
 -1         4 0.00000E+00 0.00000E+00 0.00000E+00
 -1         5-1.24617E+01 3.28104E+00-5.62591E+00
 -1         6-1.16418E+01 3.28560E+00 0.00000E+00
 -1         7-1.14708E+01 0.00000E+00-5.62487E+00
 -1         8-1.04172E+01 0.00000E+00 0.00000E+00
 -1         9-6.78215E+00 5.74805E+00 0.00000E+00
 -1        10-6.03778E+00 0.00000E+00 0.00000E+00
 -1        11-7.29383E+00 5.77676E+00-7.85395E+00
 -1        12-6.58025E+00 0.00000E+00-7.84580E+00
 -1        13-1.07416E+01 1.66441E+00 0.00000E+00
 -1        14-9.55389E+00 4.68714E+00 0.00000E+00
 -1        15-3.66432E+00 6.22881E+00 0.00000E+00
 -1        16-1.28269E-01 3.27638E+00 0.00000E+00
 -1        17-8.56064E+00 0.00000E+00 0.00000E+00
 -1        18-3.11337E+00 0.00000E+00 0.00000E+00
 -1        19-1.15873E+01 1.70430E+00-5.62446E+00
 -1        20-1.03729E+01 4.62868E+00-6.86154E+00
 -1        21-4.06670E+00 6.17961E+00-8.03064E+00
 -1        22-4.10814E-01 3.31133E+00-8.16862E+00
 -1        23-9.40908E+00 0.00000E+00-6.90494E+00
 -1        24-3.44326E+00 0.00000E+00-8.07138E+00
 -1        25-5.84840E-01 6.55112E+00-4.12384E+00
 -1        26-1.16824E+01 3.27874E+00-2.88261E+00
 -1        27-9.85685E-02 0.00000E+00-4.09276E+00
 -1        28-1.06504E+01 0.00000E+00-2.84881E+00
 -1        29-8.79934E+00 2.33643E+00 0.00000E+00
 -1        30-6.22537E+00 2.86553E+00 0.00000E+00
 -1        31-3.27952E+00 3.11347E+00 0.00000E+00
 -1        32-9.60791E+00 2.30958E+00-6.87275E+00
 -1        33-3.60895E+00 3.09900E+00-8.06188E+00
 -1        34-6.75745E+00 2.87311E+00-7.85138E+00
 -1        35-9.69527E+00 4.65430E+00-3.43259E+00
 -1        36-3.78498E+00 6.21339E+00-4.02928E+00
 -1        37-6.91123E+00 5.74543E+00-3.89634E+00
 -1        38-8.77279E+00 0.00000E+00-3.47272E+00
 -1        39-3.21444E+00 0.00000E+00-4.04246E+00
 -1        40-6.18445E+00 0.00000E+00-3.89124E+00
 -1        41-2.39021E-01 3.30883E+00-4.12222E+00
 -1        42-1.08613E+01 1.69529E+00-2.87569E+00
 -1        43-6.36478E+00 2.86609E+00-3.90767E+00
 -1        44-8.97647E+00 2.34092E+00-3.45323E+00
 -1        45-3.38106E+00 3.10748E+00-4.03246E+00
 -3
    1PSTEP                         6           2           1          
  100CL  102 2.000000000          45                     0    2           1
 -4  STRESS      6    1
 -5  SXX         1    4    1    1
 -5  SYY         1    4    2    2
 -5  SZZ         1    4    3    3
 -5  SXY         1    4    1    2
 -5  SYZ         1    4    2    3
 -5  SZX         1    4    3    1
 -1         1 7.67901E-01 7.96690E-01 7.58421E-01-6.02087E-01-1.55438E-01 5.71893E-01
 -1         2 5.45774E-01 7.81790E-01 1.72869E+00-5.97057E-01-7.22364E-02 1.83181E-01
 -1         3 4.72094E-01 2.09628E+00 3.94648E-01-1.00301E-01 8.95469E-03 5.92969E-01
 -1         4-2.04125E+00 1.35963E+00 1.66359E+00-6.11175E-02-5.22558E-02 7.57347E-02
 -1         5 6.88156E-01 3.08904E-01 3.36144E-01 3.29742E-01-2.01809E-02-3.57040E-01
 -1         6 1.65047E-01 8.57595E-01 1.92697E+00 5.45545E-01-8.46811E-02-2.29803E-01
 -1         7-1.13823E-01 2.02783E+00 4.97387E-01 1.69261E-01-2.14246E-02-5.21036E-01
 -1         8-1.54030E+00 1.32690E+00 1.55434E+00-1.03117E-01-2.31801E-02 6.22477E-02
 -1         9 1.90667E+00-5.99881E-01-1.50800E+00 1.37262E-02 6.53854E-02-9.44754E-03
 -1        10-2.98209E+00-1.71994E+00-2.52339E+00 8.69377E-05 1.43964E-01 6.41735E-02
 -1        11 1.81250E+00-1.02883E+00-9.93696E-01 6.32939E-02 1.34724E-01-4.84691E-02
 -1        12 8.93149E-01-1.54870E+00-3.70967E-01 1.88103E-02-1.83852E-02-1.04856E-01
 -1        13-1.07226E-01 1.12674E+00 2.14835E+00 1.49745E-01-1.80423E-01-9.12507E-02
 -1        14 1.06227E+00 2.85857E-01-3.87362E-01 7.14103E-01 1.09220E-01 5.47070E-02
 -1        15 1.11242E+00 2.31786E-01-6.12561E-01-7.22587E-01 1.35896E-01-6.01683E-03
 -1        16-3.31703E-01 1.08067E+00 2.40284E+00-3.45782E-01-1.88990E-01 6.46195E-03
 -1        17-1.83431E+00-2.82573E-01-5.04917E-01 2.37077E-02 6.45755E-02 3.33327E-01
 -1        18-1.77939E+00-5.04880E-01-7.84247E-01-1.55842E-01 7.69126E-02-2.64219E-01
 -1        19-1.13195E-01 1.30171E+00 4.05869E-01 3.58349E-01-3.98896E-02-4.80631E-01
 -1        20 2.36022E+00-5.88397E-01-6.70769E-01 2.78503E-01 8.37047E-02-1.84536E-01
 -1        21 1.96514E+00-7.45294E-01-9.18184E-01-6.41139E-01 1.39413E-01 5.64351E-01
 -1        22 3.99151E-01 1.95510E+00 7.21508E-01-5.26460E-01-1.24324E-01 4.41242E-01
 -1        23 1.11905E+00-2.37864E-01-2.88302E-01-5.72610E-02 5.70001E-02-4.12716E-01
 -1        24 1.37985E+00-3.01492E-01-4.01471E-01 4.56515E-02 3.86147E-02 3.76799E-01
 -1        25 4.94838E-01 8.50217E-01 2.10561E+00-4.92272E-01-1.27190E-01 6.26200E-01
 -1        26-6.71075E-03 4.25096E-01 1.40550E+00 4.79959E-01-1.99955E-02-4.53858E-01
 -1        27-1.19127E+00 2.00291E+00 9.90126E-01-9.36997E-03-3.07598E-03 5.69768E-01
 -1        28-8.52526E-01 1.80033E+00 9.98467E-01 8.02959E-03 1.24938E-02-3.84339E-01
 -1        29-1.34431E+00-3.43630E-01-6.28591E-01 2.83556E-01 8.72129E-02 1.58006E-01
 -1        30-9.98816E-01-1.34562E+00-1.87541E+00 4.99560E-03 5.57590E-02 3.56182E-02
 -1        31-1.37415E+00-4.99254E-01-8.11313E-01-2.99729E-01 9.70414E-02-5.08141E-02
 -1        32 1.20398E+00 2.63460E-01-4.97043E-01 4.42885E-01 9.27137E-02-4.29510E-01
 -1        33 1.64277E+00 1.20808E-01-3.66557E-01-4.61490E-01 1.27983E-01 4.74592E-01
 -1        34 1.21704E+00-1.04494E+00-3.62076E-01 7.35325E-02 9.58476E-03-1.29919E-01
 -1        35 9.93053E-01-1.58183E-01 3.74681E-01 5.82267E-01 3.13605E-02-5.24359E-01
 -1        36 1.12765E+00-2.76730E-02 2.08717E-01-5.53491E-01 3.63743E-02 5.53100E-01
 -1        37 2.21339E+00-4.51532E-01-5.56832E-01 7.65335E-02-6.84403E-03-1.32842E-01
 -1        38-7.01846E-01-1.76596E-01 3.12797E-01-7.59950E-02 3.75547E-02-2.67133E-01
 -1        39-8.70828E-01-4.58299E-01 1.74283E-01 3.66917E-02 3.84917E-02 3.15777E-01
 -1        40-1.01218E+00-1.59737E+00-1.23173E+00 2.71771E-03-5.60524E-02-3.80878E-02
 -1        41-7.63460E-01 1.52523E+00 1.67672E+00-3.39079E-01-1.58226E-01 4.05394E-01
 -1        42-4.36777E-01 1.58997E+00 1.61996E+00 4.21072E-01-8.08600E-02-4.94226E-01
 -1        43-1.04050E+00-1.07108E+00-1.41772E+00 7.63830E-02 7.82722E-02-3.86479E-02
 -1        44-2.78996E-01 1.38958E-01 2.55244E-01 4.07511E-01 6.54214E-02-4.21604E-01
 -1        45-1.45799E-01 7.40224E-02 1.45805E-01-3.72457E-01 7.09873E-02 3.94337E-01
 -3
    1PSTEP                         7           2           1          
  100CL  102 2.000000000          45                     0    2           1
 -4  TOSTRAIN    6    1
 -5  EXX         1    4    1    1
 -5  EYY         1    4    2    2
 -5  EZZ         1    4    3    3
 -5  EXY         1    4    1    2
 -5  EYZ         1    4    2    3
 -5  EZX         1    4    3    1
 -1         1 1.29071E-02 1.29395E-02 1.61347E-02-2.32149E-04-6.93437E-05 2.21290E-04
 -1         2 1.30378E-02 1.31059E-02 1.65501E-02-2.35496E-04-3.50646E-05 5.27447E-05
 -1         3 1.28987E-02 1.32838E-02 1.61235E-02-2.01244E-05 4.26906E-07 2.29313E-04
 -1         4 1.24938E-02 1.32478E-02 1.65382E-02-3.42724E-06-2.37262E-05 4.71218E-06
 -1         5 6.36190E-03 6.05174E-03 1.06944E-02 3.82172E-04-1.85138E-05-4.11780E-04
 -1         6 6.25011E-03 6.55284E-03 1.17675E-02 5.88928E-04-6.56916E-05-2.99313E-04
 -1         7 5.98746E-03 6.99543E-03 1.08851E-02 2.38658E-04-2.84774E-06-5.87703E-04
 -1         8 5.64147E-03 6.95887E-03 1.17723E-02-3.34971E-05-1.06607E-05-1.58859E-05
 -1         9 1.23414E-02 1.15640E-02 1.54627E-02-2.02990E-05 3.91728E-05 4.66276E-06
 -1        10 1.12020E-02 1.15970E-02 1.55149E-02-2.14038E-05 9.17401E-05 5.24290E-05
 -1        11 1.26486E-02 1.17262E-02 1.59534E-02 4.48246E-05 8.21611E-05-3.27889E-05
 -1        12 1.22143E-02 1.14312E-02 1.60100E-02 4.76403E-06-1.41756E-05-3.84624E-05
 -1        13 5.93389E-03 6.57112E-03 1.17417E-02 2.13348E-04-1.58488E-04-1.49127E-04
 -1        14 9.69973E-03 9.43671E-03 1.36077E-02 5.79231E-04 9.96089E-05 2.92399E-05
 -1        15 1.27394E-02 1.24953E-02 1.59944E-02-3.59170E-04 6.47908E-05-1.21908E-05
 -1        16 1.27515E-02 1.30521E-02 1.65652E-02-1.24485E-04-8.61668E-05-1.96503E-05
 -1        17 8.74131E-03 9.35325E-03 1.37498E-02 2.19381E-05 4.65499E-05 2.51556E-04
 -1        18 1.20996E-02 1.24238E-02 1.60478E-02-7.19976E-05 3.92398E-05-1.38668E-04
 -1        19 5.92490E-03 6.56200E-03 1.07163E-02 4.16392E-04-2.82201E-05-5.43762E-04
 -1        20 1.03151E-02 9.02121E-03 1.34371E-02 2.02770E-04 6.26488E-05-1.29654E-04
 -1        21 1.29252E-02 1.22893E-02 1.59585E-02-3.11085E-04 6.86416E-05 2.77722E-04
 -1        22 1.28090E-02 1.31611E-02 1.61030E-02-1.99550E-04-5.70041E-05 1.64447E-04
 -1        23 9.76147E-03 9.17713E-03 1.35832E-02-3.84902E-05 6.13583E-05-3.56723E-04
 -1        24 1.27442E-02 1.23348E-02 1.60331E-02 2.77944E-05 1.59950E-05 1.82240E-04
 -1        25 1.28170E-02 1.29158E-02 1.63924E-02-1.85241E-04-5.77494E-05 2.40515E-04
 -1        26 5.95602E-03 6.07859E-03 1.12517E-02 5.44604E-04-1.11244E-05-5.20552E-04
 -1        27 1.25728E-02 1.32958E-02 1.62884E-02 1.74568E-05-4.21405E-06 2.21565E-04
 -1        28 5.71933E-03 6.95795E-03 1.12496E-02 7.63972E-05 2.88748E-05-4.47811E-04
 -1        29 8.99683E-03 9.31396E-03 1.36530E-02 2.72158E-04 6.58601E-05 9.32745E-05
 -1        30 1.16020E-02 1.14960E-02 1.55080E-02-4.59560E-05 3.28115E-05 2.53178E-05
 -1        31 1.21507E-02 1.24139E-02 1.60397E-02-1.30890E-04 5.17252E-05-4.17799E-05
 -1        32 9.77671E-03 9.43140E-03 1.35080E-02 3.37692E-04 7.77364E-05-3.55185E-04
 -1        33 1.28087E-02 1.24317E-02 1.60351E-02-2.41358E-04 6.08757E-05 2.32555E-04
 -1        34 1.22845E-02 1.15534E-02 1.59761E-02 6.37935E-05 4.74117E-06-6.04537E-05
 -1        35 9.66750E-03 9.20152E-03 1.39170E-02 4.68860E-04 2.77816E-05-3.98070E-04
 -1        36 1.26991E-02 1.24077E-02 1.61848E-02-2.76066E-04 1.50369E-05 2.92724E-04
 -1        37 1.23828E-02 1.15512E-02 1.57077E-02 1.76793E-05-6.06406E-06-8.43608E-05
 -1        38 9.01467E-03 9.30248E-03 1.39458E-02-4.81899E-05 3.59703E-05-1.91649E-04
 -1        39 1.22998E-02 1.23687E-02 1.62471E-02 2.59326E-05 1.69842E-05 1.64176E-04
 -1        40 1.15937E-02 1.14032E-02 1.56914E-02-1.49289E-06-3.58651E-05-2.67422E-05
 -1        41 1.25842E-02 1.30867E-02 1.63269E-02-1.21928E-04-6.99598E-05 1.51656E-04
 -1        42 5.63207E-03 6.64174E-03 1.13153E-02 4.95790E-04-6.81697E-05-5.75041E-04
 -1        43 1.16597E-02 1.16451E-02 1.57188E-02 3.38217E-05 5.13647E-05-4.37729E-05
 -1        44 9.15202E-03 9.38229E-03 1.38984E-02 2.82905E-04 5.53629E-05-2.96822E-04
 -1        45 1.24485E-02 1.24663E-02 1.61948E-02-2.01115E-04 3.40547E-05 2.13542E-04
 -3
    1PSTEP                         8           2           1          
  100CL  102 2.000000000          45                     0    2           1
 -4  ERROR       1    1
 -5  STR(%)      1    1    0    0
 -1         1 8.49984E+00
 -1         2 2.56979E+01
 -1         3 1.88549E+01
 -1         4 2.56979E+01
 -1         5 1.55073E+01
 -1         6 2.82227E+01
 -1         7 1.55073E+01
 -1         8 2.82227E+01
 -1         9 2.20844E+01
 -1        10 2.82227E+01
 -1        11 2.82227E+01
 -1        12 1.88549E+01
 -1        13 2.82227E+01
 -1        14 2.51536E+01
 -1        15 2.38912E+01
 -1        16 2.56979E+01
 -1        17 2.82227E+01
 -1        18 2.69603E+01
 -1        19 1.55073E+01
 -1        20 2.18650E+01
 -1        21 1.83613E+01
 -1        22 1.36773E+01
 -1        23 1.71811E+01
 -1        24 1.88549E+01
 -1        25 1.70989E+01
 -1        26 2.18650E+01
 -1        27 2.22764E+01
 -1        28 2.18650E+01
 -1        29 2.82227E+01
 -1        30 2.51536E+01
 -1        31 2.69603E+01
 -1        32 2.18650E+01
 -1        33 2.35388E+01
 -1        34 2.35388E+01
 -1        35 2.82227E+01
 -1        36 2.69603E+01
 -1        37 2.51536E+01
 -1        38 2.35388E+01
 -1        39 2.22764E+01
 -1        40 2.35388E+01
 -1        41 1.70989E+01
 -1        42 2.18650E+01
 -1        43 2.82227E+01
 -1        44 2.82227E+01
 -1        45 2.69603E+01
 -3
    1PSTEP                         9           3           1          
  100CL  103 3.000000000          45                     0    3           1
 -4  DISP        4    1
 -5  D1          1    2    1    0
 -5  D2          1    2    2    0
 -5  D3          1    2    3    0
 -5  ALL         1    2    0    0    1ALL
 -1         1-1.78740E+00 6.20838E+00-7.80719E+00