    1C
    1UUSER                                                              
    1UDATE              17.july.2018                                    
    1UTIME              12:17:19                                        
    1UHOST                                                              
    1UPGM               CalculiX                                        
    1UVERSION           Version 2.14                             
    1UCOMPILETIME       Tue Jul 17 09:46:48 DST 2018                    
    1UDIR                                                               
    1UDBN                                                               
    1UMAT    1ABAQUSATR2E                                               
    2C                          2447                                     1
 -1         1 0.00000E+00 0.00000E+00 5.00000E+02
 -1         2 0.00000E+00 0.00000E+00 0.00000E+00
 -1         3 0.00000E+00 5.00000E+02 5.00000E+02
 -1         4 0.00000E+00 5.00000E+02 0.00000E+00
 -1         5 1.00000E+03 0.00000E+00 5.00000E+02
 -1         6 1.00000E+03 0.00000E+00 0.00000E+00
 -1         7 1.00000E+03 5.00000E+02 5.00000E+02
 -1         8 1.00000E+03 5.00000E+02 0.00000E+00
 -1         9 0.00000E+00 0.00000E+00 1.00000E+02
 -1        10 0.00000E+00 0.00000E+00 2.00000E+02
 -1        11 0.00000E+00 0.00000E+00 3.00000E+02
 -1        12 0.00000E+00 0.00000E+00 4.00000E+02
 -1        13 0.00000E+00 0.00000E+00 5.00000E+01
 -1        14 0.00000E+00 0.00000E+00 1.50000E+02
 -1        15 0.00000E+00 0.00000E+00 2.50000E+02
 -1        16 0.00000E+00 0.00000E+00 3.50000E+02
 -1        17 0.00000E+00 0.00000E+00 4.50000E+02
 -1        18 0.00000E+00 1.00000E+02 5.00000E+02
 -1        19 0.00000E+00 2.00000E+02 5.00000E+02
 -1        20 0.00000E+00 3.00000E+02 5.00000E+02
 -1        21 0.00000E+00 4.00000E+02 5.00000E+02
 -1        22 0.00000E+00 5.00000E+01 5.00000E+02
 -1        23 0.00000E+00 1.50000E+02 5.00000E+02
 -1        24 0.00000E+00 2.50000E+02 5.00000E+02
 -1        25 0.00000E+00 3.50000E+02 5.00000E+02
 -1        26 0.00000E+00 4.50000E+02 5.00000E+02
 -1        27 0.00000E+00 5.00000E+02 1.00000E+02
 -1        28 0.00000E+00 5.00000E+02 2.00000E+02
 -1        29 0.00000E+00 5.00000E+02 3.00000E+02
 -1        30 0.00000E+00 5.00000E+02 4.00000E+02
 -1        31 0.00000E+00 5.00000E+02 5.00000E+01
 -1        32 0.00000E+00 5.00000E+02 1.50000E+02
 -1        33 0.00000E+00 5.00000E+02 2.50000E+02
 -1        34 0.00000E+00 5.00000E+02 3.50000E+02
 -1        35 0.00000E+00 5.00000E+02 4.50000E+02
 -1        36 0.00000E+00 1.00000E+02 0.00000E+00
 -1        37 0.00000E+00 2.00000E+02 0.00000E+00
 -1        38 0.00000E+00 3.00000E+02 0.00000E+00
 -1        39 0.00000E+00 4.00000E+02 0.00000E+00
 -1        40 0.00000E+00 5.00000E+01 0.00000E+00
 -1        41 0.00000E+00 1.50000E+02 0.00000E+00
 -1        42 0.00000E+00 2.50000E+02 0.00000E+00
 -1        43 0.00000E+00 3.50000E+02 0.00000E+00
 -1        44 0.00000E+00 4.50000E+02 0.00000E+00
 -1        45 1.00000E+03 0.00000E+00 1.00000E+02
 -1        46 1.00000E+03 0.00000E+00 2.00000E+02
 -1        47 1.00000E+03 0.00000E+00 3.00000E+02
 -1        48 1.00000E+03 0.00000E+00 4.00000E+02
 -1        49 1.00000E+03 0.00000E+00 5.00000E+01
 -1        50 1.00000E+03 0.00000E+00 1.50000E+02
 -1        51 1.00000E+03 0.00000E+00 2.50000E+02
 -1        52 1.00000E+03 0.00000E+00 3.50000E+02
 -1        53 1.00000E+03 0.00000E+00 4.50000E+02
 -1        54 1.00000E+03 1.00000E+02 5.00000E+02
 -1        55 1.00000E+03 2.00000E+02 5.00000E+02
 -1        56 1.00000E+03 3.00000E+02 5.00000E+02
 -1        57 1.00000E+03 4.00000E+02 5.00000E+02
 -1        58 1.00000E+03 5.00000E+01 5.00000E+02
 -1        59 1.00000E+03 1.50000E+02 5.00000E+02
 -1        60 1.00000E+03 2.50000E+02 5.00000E+02
 -1        61 1.00000E+03 3.50000E+02 5.00000E+02
 -1        62 1.00000E+03 4.50000E+02 5.00000E+02
 -1        63 1.00000E+03 5.00000E+02 1.00000E+02
 -1        64 1.00000E+03 5.00000E+02 2.00000E+02
 -1        65 1.00000E+03 5.00000E+02 3.00000E+02
 -1        66 1.00000E+03 5.00000E+02 4.00000E+02
 -1        67 1.00000E+03 5.00000E+02 5.00000E+01
 -1        68 1.00000E+03 5.00000E+02 1.50000E+02
 -1        69 1.00000E+03 5.00000E+02 2.50000E+02
 -1        70 1.00000E+03 5.00000E+02 3.50000E+02
 -1        71 1.00000E+03 5.00000E+02 4.50000E+02
 -1        72 1.00000E+03 1.00000E+02 0.00000E+00
 -1        73 1.00000E+03 2.00000E+02 0.00000E+00
 -1        74 1.00000E+03 3.00000E+02 0.00000E+00
 -1        75 1.00000E+03 4.00000E+02 0.00000E+00
 -1        76 1.00000E+03 5.00000E+01 0.00000E+00
 -1        77 1.00000E+03 1.50000E+02 0.00000E+00
 -1        78 1.00000E+03 2.50000E+02 0.00000E+00
 -1        79 1.00000E+03 3.50000E+02 0.00000E+00
 -1        80 1.00000E+03 4.50000E+02 0.00000E+00
 -1        81 1.11111E+02 0.00000E+00 0.00000E+00
 -1        82 2.22222E+02 0.00000E+00 0.00000E+00
 -1        83 3.33333E+02 0.00000E+00 0.00000E+00
 -1        84 4.44444E+02 0.00000E+00 0.00000E+00
 -1        85 5.55556E+02 0.00000E+00 0.00000E+00
 -1        86 6.66667E+02 0.00000E+00 0.00000E+00
 -1        87 7.77778E+02 0.00000E+00 0.00000E+00
 -1        88 8.88889E+02 0.00000E+00 0.00000E+00
 -1        89 5.55556E+01 0.00000E+00 0.00000E+00
 -1        90 1.66667E+02 0.00000E+00 0.00000E+00
 -1        91 2.77778E+02 0.00000E+00 0.00000E+00
 -1        92 3.88889E+02 0.00000E+00 0.00000E+00
 -1        93 5.00000E+02 0.00000E+00 0.00000E+00
 -1        94 6.11111E+02 0.00000E+00 0.00000E+00
 -1        95 7.22222E+02 0.00000E+00 0.00000E+00
 -1        96 8.33333E+02 0.00000E+00 0.00000E+00
 -1        97 9.44444E+02 0.00000E+00 0.00000E+00
 -1        98 1.11111E+02 0.00000E+00 5.00000E+02
 -1        99 2.22222E+02 0.00000E+00 5.00000E+02
 -1       100 3.33333E+02 0.00000E+00 5.00000E+02
 -1       101 4.44444E+02 0.00000E+00 5.00000E+02
 -1       102 5.55556E+02 0.00000E+00 5.00000E+02
 -1       103 6.66667E+02 0.00000E+00 5.00000E+02
 -1       104 7.77778E+02 0.00000E+00 5.00000E+02
 -1       105 8.88889E+02 0.00000E+00 5.00000E+02
 -1       106 5.55556E+01 0.00000E+00 5.00000E+02
 -1       107 1.66667E+02 0.00000E+00 5.00000E+02
 -1       108 2.77778E+02 0.00000E+00 5.00000E+02
 -1       109 3.88889E+02 0.00000E+00 5.00000E+02
 -1       110 5.00000E+02 0.00000E+00 5.00000E+02
 -1       111 6.11111E+02 0.00000E+00 5.00000E+02
 -1       112 7.22222E+02 0.00000E+00 5.00000E+02
 -1       113 8.33333E+02 0.00000E+00 5.00000E+02
 -1       114 9.44444E+02 0.00000E+00 5.00000E+02
 -1       115 1.11111E+02 5.00000E+02 0.00000E+00
 -1       116 2.22222E+02 5.00000E+02 0.00000E+00
 -1       117 3.33333E+02 5.00000E+02 0.00000E+00
 -1       118 4.44444E+02 5.00000E+02 0.00000E+00
 -1       119 5.55556E+02 5.00000E+02 0.00000E+00
 -1       120 6.66667E+02 5.00000E+02 0.00000E+00
 -1       121 7.77778E+02 5.00000E+02 0.00000E+00
 -1       122 8.88889E+02 5.00000E+02 0.00000E+00
 -1       123 5.55556E+01 5.00000E+02 0.00000E+00
 -1       124 1.66667E+02 5.00000E+02 0.00000E+00
 -1       125 2.77778E+02 5.00000E+02 0.00000E+00
 -1       126 3.88889E+02 5.00000E+02 0.00000E+00
 -1       127 5.00000E+02 5.00000E+02 0.00000E+00
 -1       128 6.11111E+02 5.00000E+02 0.00000E+00
 -1       129 7.22222E+02 5.00000E+02 0.00000E+00
 -1       130 8.33333E+02 5.00000E+02 0.00000E+00
 -1       131 9.44444E+02 5.00000E+02 0.00000E+00
 -1       132 1.11111E+02 5.00000E+02 5.00000E+02
 -1       133 2.22222E+02 5.00000E+02 5.00000E+02
 -1       134 3.33333E+02 5.00000E+02 5.00000E+02
 -1       135 4.44444E+02 5.00000E+02 5.00000E+02
 -1       136 5.55556E+02 5.00000E+02 5.00000E+02
 -1       137 6.66667E+02 5.00000E+02 5.00000E+02
 -1       138 7.77778E+02 5.00000E+02 5.00000E+02
 -1       139 8.88889E+02 5.00000E+02 5.00000E+02
 -1       140 5.55556E+01 5.00000E+02 5.00000E+02
 -1       141 1.66667E+02 5.00000E+02 5.00000E+02
 -1       142 2.77778E+02 5.00000E+02 5.00000E+02
 -1       143 3.88889E+02 5.00000E+02 5.00000E+02
 -1       144 5.00000E+02 5.00000E+02 5.00000E+02
 -1       145 6.11111E+02 5.00000E+02 5.00000E+02
 -1       146 7.22222E+02 5.00000E+02 5.00000E+02
 -1       147 8.33333E+02 5.00000E+02 5.00000E+02
 -1       148 9.44444E+02 5.00000E+02 5.00000E+02
 -1       149 0.00000E+00 2.53803E+02 2.54349E+02
 -1       150 0.00000E+00 3.46575E+02 3.51068E+02
 -1       151 0.00000E+00 1.43750E+02 1.43750E+02
 -1       152 0.00000E+00 1.48975E+02 3.52549E+02
 -1       153 0.00000E+00 3.56250E+02 1.43750E+02
 -1       154 0.00000E+00 3.97554E+02 2.50000E+02
 -1       155 0.00000E+00 2.48366E+02 4.08781E+02
 -1       156 0.00000E+00 2.53822E+02 1.00627E+02
 -1       157 0.00000E+00 1.02621E+02 2.44374E+02
 -1       158 0.00000E+00 4.16458E+02 4.16458E+02
 -1       159 0.00000E+00 8.35417E+01 4.16458E+02
 -1       160 0.00000E+00 4.18293E+02 8.17069E+01
 -1       161 0.00000E+00 8.22311E+01 8.22311E+01
 -1       162 0.00000E+00 2.10159E+02 1.97060E+02
 -1       163 0.00000E+00 1.86634E+02 2.76722E+02
 -1       164 0.00000E+00 3.09884E+02 2.77199E+02
 -1       165 0.00000E+00 1.56177E+02 4.35558E+02
 -1       166 0.00000E+00 4.32754E+02 1.60046E+02
 -1       167 0.00000E+00 6.57204E+01 1.54071E+02
 -1       168 0.00000E+00 1.55961E+02 6.53216E+01
 -1       169 0.00000E+00 3.40802E+02 4.33668E+02
 -1       170 0.00000E+00 4.32118E+02 3.43505E+02
 -1       171 0.00000E+00 6.70276E+01 3.42676E+02
 -1       172 0.00000E+00 3.39954E+02 6.72461E+01
 -1       173 0.00000E+00 3.01523E+02 2.04679E+02
 -1       174 0.00000E+00 2.42301E+02 3.22441E+02
 -1       175 0.00000E+00 4.11155E+01 9.11155E+01
 -1       176 0.00000E+00 4.11155E+01 4.11155E+01
 -1       177 0.00000E+00 9.11155E+01 4.11155E+01
 -1       178 0.00000E+00 4.08229E+02 4.58229E+02
 -1       179 0.00000E+00 4.58229E+02 4.58229E+02
 -1       180 0.00000E+00 4.58229E+02 4.08229E+02
 -1       181 0.00000E+00 4.17708E+01 4.08229E+02
 -1       182 0.00000E+00 4.17708E+01 4.58229E+02
 -1       183 0.00000E+00 9.17708E+01 4.58229E+02
 -1       184 0.00000E+00 4.59147E+02 9.08534E+01
 -1       185 0.00000E+00 4.59147E+02 4.08534E+01
 -1       186 0.00000E+00 4.09147E+02 4.08534E+01
 -1       187 0.00000E+00 3.28602E+01 1.77036E+02
 -1       188 0.00000E+00 3.28602E+01 1.27036E+02
 -1       189 0.00000E+00 7.39757E+01 1.18151E+02
 -1       190 0.00000E+00 5.13105E+01 2.72187E+02
 -1       191 0.00000E+00 5.13105E+01 2.22187E+02
 -1       192 0.00000E+00 8.41707E+01 1.99223E+02
 -1       193 0.00000E+00 3.35138E+01 3.71338E+02
 -1       194 0.00000E+00 3.35138E+01 3.21338E+02
 -1       195 0.00000E+00 8.48242E+01 2.93525E+02
 -1       196 0.00000E+00 7.52846E+01 3.79567E+02
 -1       197 0.00000E+00 1.78088E+02 4.67779E+02
 -1       198 0.00000E+00 1.28088E+02 4.67779E+02
 -1       199 0.00000E+00 1.19859E+02 4.26008E+02
 -1       200 0.00000E+00 2.74183E+02 4.54391E+02
 -1       201 0.00000E+00 2.24183E+02 4.54391E+02
 -1       202 0.00000E+00 2.02271E+02 4.22169E+02
 -1       203 0.00000E+00 3.70401E+02 4.66834E+02
 -1       204 0.00000E+00 3.20401E+02 4.66834E+02
 -1       205 0.00000E+00 2.94584E+02 4.21224E+02
 -1       206 0.00000E+00 3.78630E+02 4.25063E+02
 -1       207 0.00000E+00 4.66377E+02 1.80023E+02
 -1       208 0.00000E+00 4.66377E+02 1.30023E+02
 -1       209 0.00000E+00 4.25524E+02 1.20876E+02
 -1       210 0.00000E+00 4.48777E+02 2.75000E+02
 -1       211 0.00000E+00 4.48777E+02 2.25000E+02
 -1       212 0.00000E+00 4.15154E+02 2.05023E+02
 -1       213 0.00000E+00 4.66059E+02 3.71753E+02
 -1       214 0.00000E+00 4.66059E+02 3.21753E+02
 -1       215 0.00000E+00 4.14836E+02 2.96753E+02
 -1       216 0.00000E+00 4.24288E+02 3.79982E+02
 -1       217 0.00000E+00 1.77980E+02 3.26608E+01
 -1       218 0.00000E+00 1.27980E+02 3.26608E+01
 -1       219 0.00000E+00 1.19096E+02 7.37763E+01
 -1       220 0.00000E+00 2.76911E+02 5.03134E+01
 -1       221 0.00000E+00 2.26911E+02 5.03134E+01
 -1       222 0.00000E+00 2.04891E+02 8.29742E+01
 -1       223 0.00000E+00 3.69977E+02 3.36230E+01
 -1       224 0.00000E+00 3.19977E+02 3.36230E+01
 -1       225 0.00000E+00 2.96888E+02 8.39365E+01
 -1       226 0.00000E+00 3.79124E+02 7.44765E+01
 -1       227 0.00000E+00 1.98397E+02 2.36891E+02
 -1       228 0.00000E+00 2.20219E+02 2.65536E+02
 -1       229 0.00000E+00 2.31981E+02 2.25705E+02
 -1       230 0.00000E+00 2.55841E+02 2.00870E+02
 -1       231 0.00000E+00 2.77663E+02 2.29514E+02
 -1       232 0.00000E+00 2.14468E+02 2.99582E+02
 -1       233 0.00000E+00 2.48052E+02 2.88395E+02
 -1       234 0.00000E+00 2.76093E+02 2.99820E+02
 -1       235 0.00000E+00 2.81843E+02 2.65774E+02
 -1       236 0.00000E+00 3.05703E+02 2.40939E+02
 -1       237 0.00000E+00 1.56390E+02 2.20717E+02
 -1       238 0.00000E+00 1.44628E+02 2.60548E+02
 -1       239 0.00000E+00 1.76954E+02 1.70405E+02
 -1       240 0.00000E+00 1.23185E+02 1.94062E+02
 -1       241 0.00000E+00 2.77672E+02 1.52653E+02
 -1       242 0.00000E+00 2.31990E+02 1.48844E+02
 -1       243 0.00000E+00 1.98786E+02 1.22188E+02
 -1       244 0.00000E+00 3.81517E+02 3.83763E+02
 -1       245 0.00000E+00 3.43689E+02 3.92368E+02
 -1       246 0.00000E+00 3.89346E+02 3.47287E+02
 -1       247 0.00000E+00 2.45334E+02 3.65611E+02
 -1       248 0.00000E+00 2.97471E+02 3.79925E+02
 -1       249 0.00000E+00 2.94438E+02 3.36755E+02
 -1       250 0.00000E+00 3.28230E+02 3.14134E+02
 -1       251 0.00000E+00 3.72065E+02 3.00534E+02
 -1       252 0.00000E+00 3.53719E+02 2.63599E+02
 -1       253 0.00000E+00 3.94502E+02 1.51898E+02
 -1       254 0.00000E+00 3.76902E+02 1.96875E+02
 -1       255 0.00000E+00 3.87272E+02 1.12728E+02
 -1       256 0.00000E+00 1.95638E+02 3.37495E+02
 -1       257 0.00000E+00 1.98671E+02 3.80665E+02
 -1       258 0.00000E+00 1.67805E+02 3.14636E+02
 -1       259 0.00000E+00 1.25798E+02 2.98462E+02
 -1       260 0.00000E+00 1.04735E+02 1.48911E+02
 -1       261 0.00000E+00 1.08001E+02 3.47613E+02
 -1       262 0.00000E+00 3.05036E+02 1.22188E+02
 -1       263 0.00000E+00 3.48102E+02 1.05498E+02
 -1       264 0.00000E+00 3.28886E+02 1.74215E+02
 -1       265 0.00000E+00 1.49855E+02 1.04536E+02
 -1       266 0.00000E+00 1.52576E+02 3.94053E+02
 -1       267 0.00000E+00 1.16258E+02 3.84504E+02
 -1       268 0.00000E+00 3.49539E+02 2.27340E+02
 -1       269 0.00000E+00 1.12991E+02 1.12991E+02
 -1       270 1.00000E+03 2.53803E+02 2.54349E+02
 -1       271 1.00000E+03 3.46575E+02 3.51068E+02
 -1       272 1.00000E+03 1.43750E+02 1.43750E+02
 -1       273 1.00000E+03 1.48975E+02 3.52549E+02
 -1       274 1.00000E+03 3.56250E+02 1.43750E+02
 -1       275 1.00000E+03 3.97554E+02 2.50000E+02
 -1       276 1.00000E+03 2.48366E+02 4.08781E+02
 -1       277 1.00000E+03 2.53822E+02 1.00627E+02
 -1       278 1.00000E+03 1.02621E+02 2.44374E+02
 -1       279 1.00000E+03 4.16458E+02 4.16458E+02
 -1       280 1.00000E+03 8.35417E+01 4.16458E+02
 -1       281 1.00000E+03 4.18293E+02 8.17069E+01
 -1       282 1.00000E+03 8.22311E+01 8.22311E+01
 -1       283 1.00000E+03 2.10159E+02 1.97060E+02
 -1       284 1.00000E+03 1.86634E+02 2.76722E+02
 -1       285 1.00000E+03 3.09884E+02 2.77199E+02
 -1       286 1.00000E+03 1.56177E+02 4.35558E+02
 -1       287 1.00000E+03 4.32754E+02 1.60046E+02
 -1       288 1.00000E+03 6.57204E+01 1.54071E+02
 -1       289 1.00000E+03 1.55961E+02 6.53216E+01
 -1       290 1.00000E+03 3.40802E+02 4.33668E+02
 -1       291 1.00000E+03 4.32118E+02 3.43505E+02
 -1       292 1.00000E+03 6.70276E+01 3.42676E+02
 -1       293 1.00000E+03 3.39954E+02 6.72461E+01
 -1       294 1.00000E+03 3.01523E+02 2.04679E+02
 -1       295 1.00000E+03 2.42301E+02 3.22441E+02
 -1       296 1.00000E+03 4.17708E+01 4.08229E+02
 -1       297 1.00000E+03 4.17708E+01 4.58229E+02
 -1       298 1.00000E+03 9.17708E+01 4.58229E+02
 -1       299 1.00000E+03 4.11155E+01 4.11155E+01
 -1       300 1.00000E+03 4.11155E+01 9.11155E+01
 -1       301 1.00000E+03 9.11155E+01 4.11155E+01
 -1       302 1.00000E+03 4.08229E+02 4.58229E+02
 -1       303 1.00000E+03 4.58229E+02 4.58229E+02
 -1       304 1.00000E+03 4.58229E+02 4.08229E+02
 -1       305 1.00000E+03 4.59147E+02 9.08534E+01
 -1       306 1.00000E+03 4.59147E+02 4.08534E+01
 -1       307 1.00000E+03 4.09147E+02 4.08534E+01
 -1       308 1.00000E+03 3.28602E+01 1.27036E+02
 -1       309 1.00000E+03 3.28602E+01 1.77036E+02
 -1       310 1.00000E+03 7.39757E+01 1.18151E+02
 -1       311 1.00000E+03 5.13105E+01 2.22187E+02
 -1       312 1.00000E+03 5.13105E+01 2.72187E+02
 -1       313 1.00000E+03 8.41707E+01 1.99223E+02
 -1       314 1.00000E+03 3.35138E+01 3.21338E+02
 -1       315 1.00000E+03 3.35138E+01 3.71338E+02
 -1       316 1.00000E+03 8.48242E+01 2.93525E+02
 -1       317 1.00000E+03 7.52846E+01 3.79567E+02
 -1       318 1.00000E+03 1.28088E+02 4.67779E+02
 -1       319 1.00000E+03 1.78088E+02 4.67779E+02
 -1       320 1.00000E+03 1.19859E+02 4.26008E+02
 -1       321 1.00000E+03 2.24183E+02 4.54391E+02
 -1       322 1.00000E+03 2.74183E+02 4.54391E+02
 -1       323 1.00000E+03 2.02271E+02 4.22169E+02
 -1       324 1.00000E+03 3.20401E+02 4.66834E+02
 -1       325 1.00000E+03 3.70401E+02 4.66834E+02
 -1       326 1.00000E+03 2.94584E+02 4.21224E+02
 -1       327 1.00000E+03 3.78630E+02 4.25063E+02
 -1       328 1.00000E+03 4.66377E+02 1.80023E+02
 -1       329 1.00000E+03 4.66377E+02 1.30023E+02
 -1       330 1.00000E+03 4.25524E+02 1.20876E+02
 -1       331 1.00000E+03 4.48777E+02 2.75000E+02
 -1       332 1.00000E+03 4.48777E+02 2.25000E+02
 -1       333 1.00000E+03 4.15154E+02 2.05023E+02
 -1       334 1.00000E+03 4.66059E+02 3.71753E+02
 -1       335 1.00000E+03 4.66059E+02 3.21753E+02
 -1       336 1.00000E+03 4.14836E+02 2.96753E+02
 -1       337 1.00000E+03 4.24288E+02 3.79982E+02
 -1       338 1.00000E+03 1.77980E+02 3.26608E+01
 -1       339 1.00000E+03 1.27980E+02 3.26608E+01
 -1       340 1.00000E+03 1.19096E+02 7.37763E+01
 -1       341 1.00000E+03 2.76911E+02 5.03134E+01
 -1       342 1.00000E+03 2.26911E+02 5.03134E+01
 -1       343 1.00000E+03 2.04891E+02 8.29742E+01
 -1       344 1.00000E+03 3.69977E+02 3.36230E+01
 -1       345 1.00000E+03 3.19977E+02 3.36230E+01
 -1       346 1.00000E+03 2.96888E+02 8.39365E+01
 -1       347 1.00000E+03 3.79124E+02 7.44765E+01
 -1       348 1.00000E+03 2.48052E+02 2.88395E+02
 -1       349 1.00000E+03 2.14468E+02 2.99582E+02
 -1       350 1.00000E+03 2.20219E+02 2.65536E+02
 -1       351 1.00000E+03 2.81843E+02 2.65774E+02
 -1       352 1.00000E+03 2.76093E+02 2.99820E+02
 -1       353 1.00000E+03 1.98397E+02 2.36891E+02
 -1       354 1.00000E+03 2.31981E+02 2.25705E+02
 -1       355 1.00000E+03 2.55841E+02 2.00870E+02
 -1       356 1.00000E+03 2.77663E+02 2.29514E+02
 -1       357 1.00000E+03 3.05703E+02 2.40939E+02
 -1       358 1.00000E+03 3.87272E+02 1.12728E+02
 -1       359 1.00000E+03 3.94502E+02 1.51898E+02
 -1       360 1.00000E+03 3.76902E+02 1.96875E+02
 -1       361 1.00000E+03 3.05036E+02 1.22188E+02
 -1       362 1.00000E+03 3.48102E+02 1.05498E+02
 -1       363 1.00000E+03 3.28886E+02 1.74215E+02
 -1       364 1.00000E+03 2.77672E+02 1.52653E+02
 -1       365 1.00000E+03 3.49539E+02 2.27340E+02
 -1       366 1.00000E+03 1.67805E+02 3.14636E+02
 -1       367 1.00000E+03 1.95638E+02 3.37495E+02
 -1       368 1.00000E+03 2.45334E+02 3.65611E+02
 -1       369 1.00000E+03 1.98671E+02 3.80665E+02
 -1       370 1.00000E+03 2.94438E+02 3.36755E+02
 -1       371 1.00000E+03 3.28230E+02 3.14134E+02
 -1       372 1.00000E+03 2.97471E+02 3.79925E+02
 -1       373 1.00000E+03 3.81517E+02 3.83763E+02
 -1       374 1.00000E+03 3.43689E+02 3.92368E+02
 -1       375 1.00000E+03 3.89346E+02 3.47287E+02
 -1       376 1.00000E+03 2.31990E+02 1.48844E+02
 -1       377 1.00000E+03 1.98786E+02 1.22188E+02
 -1       378 1.00000E+03 1.76954E+02 1.70405E+02
 -1       379 1.00000E+03 1.56390E+02 2.20717E+02
 -1       380 1.00000E+03 1.44628E+02 2.60548E+02
 -1       381 1.00000E+03 1.23185E+02 1.94062E+02
 -1       382 1.00000E+03 1.52576E+02 3.94053E+02
 -1       383 1.00000E+03 1.16258E+02 3.84504E+02
 -1       384 1.00000E+03 1.08001E+02 3.47613E+02
 -1       385 1.00000E+03 1.25798E+02 2.98462E+02
 -1       386 1.00000E+03 1.49855E+02 1.04536E+02
 -1       387 1.00000E+03 1.04735E+02 1.48911E+02
 -1       388 1.00000E+03 1.12991E+02 1.12991E+02
 -1       389 1.00000E+03 3.53719E+02 2.63599E+02
 -1       390 1.00000E+03 3.72065E+02 3.00534E+02
 -1       391 7.36180E+02 0.00000E+00 2.41477E+02
 -1       392 2.50639E+02 0.00000E+00 2.52295E+02
 -1       393 5.00000E+02 0.00000E+00 2.47746E+02
 -1       394 6.35655E+02 0.00000E+00 3.42941E+02
 -1       395 3.73914E+02 0.00000E+00 3.45626E+02
 -1       396 6.27789E+02 0.00000E+00 1.53780E+02
 -1       397 3.68629E+02 0.00000E+00 1.55620E+02
 -1       398 8.61707E+02 0.00000E+00 3.50000E+02
 -1       399 8.67575E+02 0.00000E+00 1.69170E+02
 -1       400 1.32436E+02 0.00000E+00 3.30842E+02
 -1       401 1.40036E+02 0.00000E+00 1.49493E+02
 -1       402 5.00078E+02 0.00000E+00 4.15539E+02
 -1       403 5.09865E+02 0.00000E+00 1.17508E+02
 -1       404 7.43258E+02 0.00000E+00 3.82205E+02
 -1       405 2.79703E+02 0.00000E+00 3.95703E+02
 -1       406 7.15276E+02 0.00000E+00 9.40807E+01
 -1       407 2.55811E+02 0.00000E+00 1.17275E+02
 -1       408 9.07749E+02 0.00000E+00 2.51730E+02
 -1       409 9.23163E+01 0.00000E+00 2.48252E+02
 -1       410 6.54171E+02 0.00000E+00 2.49945E+02
 -1       411 3.94911E+02 0.00000E+00 2.44761E+02
 -1       412 9.19706E+02 0.00000E+00 4.20874E+02
 -1       413 9.17328E+02 0.00000E+00 8.22871E+01
 -1       414 8.26728E+01 0.00000E+00 4.17714E+02
 -1       415 8.05849E+01 0.00000E+00 7.90418E+01
 -1       416 8.26117E+02 0.00000E+00 8.76987E+01
 -1       417 8.29666E+02 0.00000E+00 4.30552E+02
 -1       418 1.70334E+02 0.00000E+00 6.94477E+01
 -1       419 1.73059E+02 0.00000E+00 4.10613E+02
 -1       420 3.91033E+02 0.00000E+00 4.26830E+02
 -1       421 6.10406E+02 0.00000E+00 4.26127E+02
 -1       422 6.11111E+02 0.00000E+00 6.77589E+01
 -1       423 3.90110E+02 0.00000E+00 7.49844E+01
 -1       424 5.55368E+02 0.00000E+00 3.15581E+02
 -1       425 3.07520E+02 0.00000E+00 2.87734E+02
 -1       426 4.52551E+02 0.00000E+00 3.32680E+02
 -1       427 5.77507E+02 0.00000E+00 2.19275E+02
 -1       428 4.43310E+02 0.00000E+00 1.77385E+02
 -1       429 8.01474E+02 0.00000E+00 2.69679E+02
 -1       430 1.77917E+02 0.00000E+00 2.24370E+02
 -1       431 2.97849E+02 0.00000E+00 1.87064E+02
 -1       432 9.37973E+02 0.00000E+00 1.55310E+02
 -1       433 9.37973E+02 0.00000E+00 3.44690E+02
 -1       434 6.20274E+01 0.00000E+00 1.55310E+02
 -1       435 6.20274E+01 0.00000E+00 3.44690E+02
 -1       436 7.04654E+02 0.00000E+00 1.83987E+02
 -1       437 7.11247E+02 0.00000E+00 3.01612E+02
 -1       438 2.17355E+02 0.00000E+00 3.17638E+02
 -1       439 7.82385E+02 0.00000E+00 1.77437E+02
 -1       440 4.02924E+01 0.00000E+00 3.95209E+01
 -1       441 4.02924E+01 0.00000E+00 8.95209E+01
 -1       442 9.58480E+01 0.00000E+00 3.95209E+01
 -1       443 4.13364E+01 0.00000E+00 4.08857E+02
 -1       444 4.13364E+01 0.00000E+00 4.58857E+02
 -1       445 9.68920E+01 0.00000E+00 4.58857E+02
 -1       446 9.59853E+02 0.00000E+00 4.60437E+02
 -1       447 9.59853E+02 0.00000E+00 4.10437E+02
 -1       448 9.04297E+02 0.00000E+00 4.60437E+02
 -1       449 9.58664E+02 0.00000E+00 9.11436E+01
 -1       450 9.58664E+02 0.00000E+00 4.11436E+01
 -1       451 9.03108E+02 0.00000E+00 4.11436E+01
 -1       452 3.10137E+01 0.00000E+00 1.27655E+02
 -1       453 3.10137E+01 0.00000E+00 1.77655E+02
 -1       454 7.13061E+01 0.00000E+00 1.17176E+02
 -1       455 4.61581E+01 0.00000E+00 2.24126E+02
 -1       456 4.61581E+01 0.00000E+00 2.74126E+02
 -1       457 7.71718E+01 0.00000E+00 2.01781E+02
 -1       458 3.10137E+01 0.00000E+00 3.22345E+02
 -1       459 3.10137E+01 0.00000E+00 3.72345E+02
 -1       460 7.71718E+01 0.00000E+00 2.96471E+02
 -1       461 7.23501E+01 0.00000E+00 3.81202E+02
 -1       462 9.68986E+02 0.00000E+00 1.77655E+02
 -1       463 9.68986E+02 0.00000E+00 1.27655E+02
 -1       464 9.27650E+02 0.00000E+00 1.18799E+02
 -1       465 9.53875E+02 0.00000E+00 2.75865E+02
 -1       466 9.53875E+02 0.00000E+00 2.25865E+02
 -1       467 9.22861E+02 0.00000E+00 2.03520E+02
 -1       468 9.68986E+02 0.00000E+00 3.72345E+02
 -1       469 9.68986E+02 0.00000E+00 3.22345E+02
 -1       470 9.22861E+02 0.00000E+00 2.98210E+02
 -1       471 9.28839E+02 0.00000E+00 3.82782E+02
 -1       472 1.96278E+02 0.00000E+00 3.47239E+01
 -1       473 1.40723E+02 0.00000E+00 3.47239E+01
 -1       474 1.25460E+02 0.00000E+00 7.42448E+01
 -1       475 2.94572E+02 0.00000E+00 5.86374E+01
 -1       476 2.39017E+02 0.00000E+00 5.86374E+01
 -1       477 2.13073E+02 0.00000E+00 9.33612E+01
 -1       478 4.17277E+02 0.00000E+00 3.74922E+01
 -1       479 3.61722E+02 0.00000E+00 3.74922E+01
 -1       480 3.22961E+02 0.00000E+00 9.61296E+01
 -1       481 5.32710E+02 0.00000E+00 5.87539E+01
 -1       482 4.77155E+02 0.00000E+00 5.87539E+01
 -1       483 4.49988E+02 0.00000E+00 9.62461E+01
 -1       484 6.38889E+02 0.00000E+00 3.38795E+01
 -1       485 5.83333E+02 0.00000E+00 3.38795E+01
 -1       486 5.60488E+02 0.00000E+00 9.26333E+01
 -1       487 7.46527E+02 0.00000E+00 4.70403E+01
 -1       488 6.90971E+02 0.00000E+00 4.70403E+01
 -1       489 6.63193E+02 0.00000E+00 8.09198E+01
 -1       490 8.57503E+02 0.00000E+00 4.38494E+01
 -1       491 8.01947E+02 0.00000E+00 4.38494E+01
 -1       492 7.70696E+02 0.00000E+00 9.08897E+01
 -1       493 8.71722E+02 0.00000E+00 8.49929E+01
 -1       494 1.42085E+02 0.00000E+00 4.55306E+02
 -1       495 1.97641E+02 0.00000E+00 4.55306E+02
 -1       496 1.27866E+02 0.00000E+00 4.14163E+02
 -1       497 2.50963E+02 0.00000E+00 4.47852E+02
 -1       498 3.06518E+02 0.00000E+00 4.47852E+02
 -1       499 2.26381E+02 0.00000E+00 4.03158E+02
 -1       500 3.62183E+02 0.00000E+00 4.63415E+02
 -1       501 4.17739E+02 0.00000E+00 4.63415E+02
 -1       502 3.35368E+02 0.00000E+00 4.11266E+02
 -1       503 4.72261E+02 0.00000E+00 4.57769E+02
 -1       504 5.27817E+02 0.00000E+00 4.57769E+02
 -1       505 4.45556E+02 0.00000E+00 4.21184E+02
 -1       506 5.82981E+02 0.00000E+00 4.63064E+02
 -1       507 6.38536E+02 0.00000E+00 4.63064E+02
 -1       508 5.55242E+02 0.00000E+00 4.20833E+02
 -1       509 7.04962E+02 0.00000E+00 4.41102E+02
 -1       510 7.60518E+02 0.00000E+00 4.41102E+02
 -1       511 6.76832E+02 0.00000E+00 4.04166E+02
 -1       512 8.03722E+02 0.00000E+00 4.65276E+02
 -1       513 8.59277E+02 0.00000E+00 4.65276E+02
 -1       514 7.86462E+02 0.00000E+00 4.06378E+02
 -1       515 8.74686E+02 0.00000E+00 4.25713E+02
 -1       516 2.74244E+02 0.00000E+00 2.19680E+02
 -1       517 3.02684E+02 0.00000E+00 2.37399E+02
 -1       518 2.79080E+02 0.00000E+00 2.70015E+02
 -1       519 2.62437E+02 0.00000E+00 3.02686E+02
 -1       520 2.33997E+02 0.00000E+00 2.84966E+02
 -1       521 3.26809E+02 0.00000E+00 3.70665E+02
 -1       522 2.93612E+02 0.00000E+00 3.41719E+02
 -1       523 3.40717E+02 0.00000E+00 3.16680E+02
 -1       524 3.51215E+02 0.00000E+00 2.66248E+02
 -1       525 3.84413E+02 0.00000E+00 2.95194E+02
 -1       526 2.48529E+02 0.00000E+00 3.56671E+02
 -1       527 3.46380E+02 0.00000E+00 2.15913E+02
 -1       528 6.89457E+02 0.00000E+00 3.62573E+02
 -1       529 6.23030E+02 0.00000E+00 3.84534E+02
 -1       530 6.73451E+02 0.00000E+00 3.22276E+02
 -1       531 7.27253E+02 0.00000E+00 3.41908E+02
 -1       532 5.95512E+02 0.00000E+00 3.29261E+02
 -1       533 6.04769E+02 0.00000E+00 2.82763E+02
 -1       534 6.44913E+02 0.00000E+00 2.96443E+02
 -1       535 5.82887E+02 0.00000E+00 3.70854E+02
 -1       536 6.82709E+02 0.00000E+00 2.75778E+02
 -1       537 2.14278E+02 0.00000E+00 2.38332E+02
 -1       538 2.37883E+02 0.00000E+00 2.05717E+02
 -1       539 1.97636E+02 0.00000E+00 2.71004E+02
 -1       540 5.27684E+02 0.00000E+00 2.81663E+02
 -1       541 5.03959E+02 0.00000E+00 3.24130E+02
 -1       542 4.76275E+02 0.00000E+00 2.90213E+02
 -1       543 4.76315E+02 0.00000E+00 3.74110E+02
 -1       544 5.27723E+02 0.00000E+00 3.65560E+02
 -1       545 4.23731E+02 0.00000E+00 2.88721E+02
 -1       546 4.13233E+02 0.00000E+00 3.39153E+02
 -1       547 4.21792E+02 0.00000E+00 3.79755E+02
 -1       548 3.82474E+02 0.00000E+00 3.86228E+02
 -1       549 4.47455E+02 0.00000E+00 2.46254E+02
 -1       550 4.05969E+02 0.00000E+00 1.66503E+02
 -1       551 4.19110E+02 0.00000E+00 2.11073E+02
 -1       552 3.81770E+02 0.00000E+00 2.00191E+02
 -1       553 3.79369E+02 0.00000E+00 1.15302E+02
 -1       554 4.16710E+02 0.00000E+00 1.26185E+02
 -1       555 3.33239E+02 0.00000E+00 1.71342E+02
 -1       556 2.76830E+02 0.00000E+00 1.52169E+02
 -1       557 3.12220E+02 0.00000E+00 1.36448E+02
 -1       558 4.71655E+02 0.00000E+00 2.12566E+02
 -1       559 4.76587E+02 0.00000E+00 1.47446E+02
 -1       560 5.04933E+02 0.00000E+00 1.82627E+02
 -1       561 6.02648E+02 0.00000E+00 1.86527E+02
 -1       562 5.43686E+02 0.00000E+00 1.68392E+02
 -1       563 5.68827E+02 0.00000E+00 1.35644E+02
 -1       564 6.19450E+02 0.00000E+00 1.10769E+02
 -1       565 5.38753E+02 0.00000E+00 2.33511E+02
 -1       566 7.59282E+02 0.00000E+00 2.09457E+02
 -1       567 7.91929E+02 0.00000E+00 2.23558E+02
 -1       568 7.68827E+02 0.00000E+00 2.55578E+02
 -1       569 7.20417E+02 0.00000E+00 2.12732E+02
 -1       570 7.43519E+02 0.00000E+00 1.80712E+02
 -1       571 7.56361E+02 0.00000E+00 2.85645E+02
 -1       572 7.23713E+02 0.00000E+00 2.71544E+02
 -1       573 6.95175E+02 0.00000E+00 2.45711E+02
 -1       574 6.79412E+02 0.00000E+00 2.16966E+02
 -1       575 8.02483E+02 0.00000E+00 3.66102E+02
 -1       576 7.72366E+02 0.00000E+00 3.25942E+02
 -1       577 8.31591E+02 0.00000E+00 3.09840E+02
 -1       578 8.45687E+02 0.00000E+00 3.90276E+02
 -1       579 5.66437E+02 0.00000E+00 2.67428E+02
 -1       580 6.15839E+02 0.00000E+00 2.34610E+02
 -1       581 6.71532E+02 0.00000E+00 1.23930E+02
 -1       582 7.09965E+02 0.00000E+00 1.39034E+02
 -1       583 6.66221E+02 0.00000E+00 1.68883E+02