
 displacements (vx,vy,vz) for set ONE and time  0.1000000E+01

         1  4.650243E+02 -5.770158E+01 -5.768248E+01
