    1C
    1UUSER                                                              
    1UDATE              17.july.2018                                    
    1UTIME              15:19:08                                        
    1UHOST                                                              
    1UPGM               CalculiX                                        
    1UVERSION           Version 2.14                             
    1UCOMPILETIME       Tue Jul 17 10:10:03 DST 2018                    
    1UDIR                                                               
    1UDBN                                                               
    1UMAT    1ABAQUSATR2E                                               
    2C                            20                                     1
 -1         1 1.00000E+00 1.00000E+00 0.00000E+00
 -1         2 1.00000E+00 0.00000E+00 0.00000E+00
 -1         3 1.00000E+00 0.00000E+00 1.00000E+00
 -1         4 1.00000E+00 1.00000E+00 1.00000E+00
 -1         5 0.00000E+00 1.00000E+00 0.00000E+00
 -1         6 0.00000E+00 0.00000E+00 0.00000E+00
 -1         7 0.00000E+00 0.00000E+00 1.00000E+00
 -1         8 0.00000E+00 1.00000E+00 1.00000E+00
 -1         9 1.00000E+00 5.00000E-01 0.00000E+00
 -1        10 1.00000E+00 0.00000E+00 5.00000E-01
 -1        11 1.00000E+00 5.00000E-01 1.00000E+00
 -1        12 1.00000E+00 1.00000E+00 5.00000E-01
 -1        13 5.00000E-01 1.00000E+00 0.00000E+00
 -1        14 5.00000E-01 0.00000E+00 0.00000E+00
 -1        15 5.00000E-01 0.00000E+00 1.00000E+00
 -1        16 5.00000E-01 1.00000E+00 1.00000E+00
 -1        17 0.00000E+00 5.00000E-01 0.00000E+00
 -1        18 0.00000E+00 0.00000E+00 5.00000E-01
 -1        19 0.00000E+00 5.00000E-01 1.00000E+00
 -1        20 0.00000E+00 1.00000E+00 5.00000E-01
 -3
    3C                             1                                     1
 -1         1    4    0    1
 -2         1         2         3         4         5         6         7         8         9        10
 -2        11        12        13        14        15        16        17        18        19        20
 -3
    1PSTEP                         1           1           1          
  100CL  101 1.00000E-01          20                     0    1           1
 -4  STRESS      6    1
 -5  SXX         1    4    1    1
 -5  SYY         1    4    2    2
 -5  SZZ         1    4    3    3
 -5  SXY         1    4    1    2
 -5  SYZ         1    4    2    3
 -5  SZX         1    4    3    1
 -1         1 5.00198E+00 2.18105E-03 2.49971E-03 1.85331E-14 2.50977E-14-6.75775E-14
 -1         2 5.00198E+00 2.18105E-03 2.49971E-03-3.03813E-14-4.19307E-14 2.21542E-14
 -1         3 5.00198E+00 2.18105E-03 2.49971E-03 3.10329E-14 8.94185E-14 2.75826E-14
 -1         4 5.00198E+00 2.18105E-03 2.49971E-03-3.98183E-14-8.23665E-14 1.13034E-13
 -1         5 5.00198E+00 2.18071E-03 2.49942E-03-1.33704E-14-6.62314E-15 1.83727E-14
 -1         6 5.00198E+00 2.18071E-03 2.49942E-03 3.92788E-15 5.57740E-14 5.71093E-14
 -1         7 5.00198E+00 2.18071E-03 2.49942E-03-8.73479E-16-9.72505E-14-2.54732E-14
 -1         8 5.00198E+00 2.18071E-03 2.49942E-03 2.98088E-14 1.99041E-14-5.48124E-14
 -1         9 5.00198E+00 2.18105E-03 2.49971E-03-5.92407E-15-8.41652E-15-2.27116E-14
 -1        10 5.00198E+00 2.18105E-03 2.49971E-03 3.25794E-16 2.37439E-14 2.48684E-14
 -1        11 5.00198E+00 2.18105E-03 2.49971E-03-4.39272E-15 3.52598E-15 7.03082E-14
 -1        12 5.00198E+00 2.18105E-03 2.49971E-03-1.06426E-14-2.86344E-14 2.27281E-14
 -1        13 5.00198E+00 2.18088E-03 2.49956E-03 2.58137E-15 9.23726E-15-2.46024E-14
 -1        14 5.00198E+00 2.18088E-03 2.49956E-03-1.32267E-14 6.92167E-15 3.96318E-14
 -1        15 5.00198E+00 2.18088E-03 2.49956E-03 1.50797E-14-3.91598E-15 1.05467E-15
 -1        16 5.00198E+00 2.18088E-03 2.49956E-03-5.00477E-15-3.12312E-14 2.91107E-14
 -1        17 5.00198E+00 2.18071E-03 2.49942E-03-4.72126E-15 2.45754E-14 3.77410E-14
 -1        18 5.00198E+00 2.18071E-03 2.49942E-03 1.52720E-15-2.07382E-14 1.58180E-14
 -1        19 5.00198E+00 2.18071E-03 2.49942E-03 1.44676E-14-3.86732E-14-4.01428E-14
 -1        20 5.00198E+00 2.18071E-03 2.49942E-03 8.21917E-15 6.64050E-15-1.82199E-14
 -3
    1PSTEP                         2           1           1          
  100CL  101 1.00000E-01          20                     0    1           1
 -4  TOSTRAIN    6    1
 -5  EXX         1    4    1    1
 -5  EYY         1    4    2    2
 -5  EZZ         1    4    3    3
 -5  EXY         1    4    1    2
 -5  EYZ         1    4    2    3
 -5  EZX         1    4    3    1
 -1         1 1.83140E-02 1.75977E-02 2.33979E-02 5.29052E-18 7.16432E-18-1.92905E-17
 -1         2 1.83140E-02 1.75977E-02 2.33979E-02-8.67253E-18-1.19699E-17 6.32342E-18
 -1         3 1.83140E-02 1.75977E-02 2.33979E-02 8.85850E-18 2.55260E-17 7.87386E-18
 -1         4 1.83140E-02 1.75977E-02 2.33979E-02-1.13666E-17-2.35121E-17 3.22666E-17
 -1         5 1.83166E-02 1.76001E-02 2.34028E-02-3.81702E-18-1.89062E-18 5.24464E-18
 -1         6 1.83166E-02 1.76001E-02 2.34028E-02 1.12108E-18 1.59229E-17 1.63048E-17
 -1         7 1.83166E-02 1.76001E-02 2.34028E-02-2.49046E-19-2.77638E-17-7.27226E-18
 -1         8 1.83166E-02 1.76001E-02 2.34028E-02 8.50990E-18 5.68171E-18-1.56476E-17
 -1         9 1.83140E-02 1.75977E-02 2.33979E-02-1.69100E-18-2.40280E-18-6.48355E-18
 -1        10 1.83140E-02 1.75977E-02 2.33979E-02 9.29833E-20 6.77803E-18 7.09864E-18
 -1        11 1.83140E-02 1.75977E-02 2.33979E-02-1.25408E-18 1.00692E-18 2.00702E-17
 -1        12 1.83140E-02 1.75977E-02 2.33979E-02-3.03806E-18-8.17391E-18 6.48805E-18
 -1        13 1.83153E-02 1.75989E-02 2.34004E-02 7.36750E-19 2.63685E-18-7.02294E-18
 -1        14 1.83153E-02 1.75989E-02 2.34004E-02-3.77573E-18 1.97649E-18 1.13141E-17
 -1        15 1.83153E-02 1.75989E-02 2.34004E-02 4.30472E-18-1.11891E-18 3.00801E-19
 -1        16 1.83153E-02 1.75989E-02 2.34004E-02-1.42837E-18-8.91522E-18 8.30951E-18
 -1        17 1.83166E-02 1.76001E-02 2.34028E-02-1.34797E-18 7.01614E-18 1.07747E-17
 -1        18 1.83166E-02 1.76001E-02 2.34028E-02 4.36016E-19-5.92046E-18 4.51628E-18
 -1        19 1.83166E-02 1.76001E-02 2.34028E-02 4.13043E-18-1.10411E-17-1.14599E-17
 -1        20 1.83166E-02 1.76001E-02 2.34028E-02 2.34644E-18 1.89554E-18-5.20148E-18
 -3
    1PSTEP                         3           1           1          
  100CL  101 1.00000E-01          20                     0    1           1
 -4  ERROR       1    1
 -5  STR(%)      1    1    0    0
 -1         1 7.97163E-07
 -1         2 7.97163E-07
 -1         3 7.97163E-07
 -1         4 7.97163E-07
 -1         5 7.97163E-07
 -1         6 7.97163E-07
 -1         7 7.97163E-07
 -1         8 7.97163E-07
 -1         9 7.97163E-07
 -1        10 7.97163E-07
 -1        11 7.97163E-07
 -1        12 7.97163E-07
 -1        13 7.97163E-07
 -1        14 7.97163E-07
 -1        15 7.97163E-07
 -1        16 7.97163E-07
 -1        17 7.97163E-07
 -1        18 7.97163E-07
 -1        19 7.97163E-07
 -1        20 7.97163E-07
 -3
    1PSTEP                         4           2           1          
  100CL  102 2.00000E-01          20                     0    2           1
 -4  STRESS      6    1
 -5  SXX         1    4    1    1
 -5  SYY         1    4    2    2
 -5  SZZ         1    4    3    3
 -5  SXY         1    4    1    2
 -5  SYZ         1    4    2    3
 -5  SZX         1    4    3    1
 -1         1 4.99760E+00-2.19957E-03-2.52132E-03-2.47920E-14-5.96928E-14-7.95950E-14
 -1         2 4.99760E+00-2.19957E-03-2.52132E-03-3.43207E-15 6.20021E-14-2.71061E-14
 -1         3 4.99760E+00-2.19957E-03-2.52132E-03-1.04972E-14-4.74727E-14 1.95984E-14
 -1         4 4.99760E+00-2.19957E-03-2.52132E-03 1.67078E-14 8.10447E-14 1.78337E-13
 -1         5 4.99760E+00-2.19921E-03-2.52102E-03-7.50652E-15 3.52661E-14 8.55574E-14
 -1         6 4.99760E+00-2.19921E-03-2.52102E-03 2.52465E-14-7.21279E-14-1.17269E-14
 -1         7 4.99760E+00-2.19921E-03-2.52102E-03-2.67424E-14 9.97810E-14 3.95375E-14
 -1         8 4.99760E+00-2.19921E-03-2.52102E-03 5.05946E-14-9.13290E-14-2.66691E-13
 -1         9 4.99760E+00-2.19957E-03-2.52132E-03-1.41120E-14 1.15467E-15-5.33505E-14
 -1        10 4.99760E+00-2.19957E-03-2.52132E-03-6.96462E-15 7.26472E-15-3.75382E-15
 -1        11 4.99760E+00-2.19957E-03-2.52132E-03 3.10528E-15 1.67860E-14 9.89679E-14
 -1        12 4.99760E+00-2.19957E-03-2.52132E-03-4.04213E-15 1.06759E-14 4.93711E-14
 -1        13 4.99760E+00-2.19939E-03-2.52117E-03-1.61493E-14-1.22134E-14 2.98123E-15
 -1        14 4.99760E+00-2.19939E-03-2.52117E-03 1.09072E-14-5.06285E-15-1.94165E-14
 -1        15 4.99760E+00-2.19939E-03-2.52117E-03-1.86198E-14 2.61541E-14 2.95680E-14
 -1        16 4.99760E+00-2.19939E-03-2.52117E-03 3.36512E-14-5.14213E-15-4.41770E-14
 -1        17 4.99760E+00-2.19921E-03-2.52102E-03 8.87001E-15-1.84309E-14 3.69153E-14
 -1        18 4.99760E+00-2.19921E-03-2.52102E-03-7.47920E-16 1.38266E-14 1.39053E-14
 -1        19 4.99760E+00-2.19921E-03-2.52102E-03 1.19261E-14 4.22599E-15-1.13577E-13
 -1        20 4.99760E+00-2.19921E-03-2.52102E-03 2.15440E-14-2.80315E-14-9.05669E-14
 -3
    1PSTEP                         5           2           1          
  100CL  102 2.00000E-01          20                     0    2           1
 -4  TOSTRAIN    6    1
 -5  EXX         1    4    1    1
 -5  EYY         1    4    2    2
 -5  EZZ         1    4    3    3
 -5  EXY         1    4    1    2
 -5  EYZ         1    4    2    3
 -5  EZX         1    4    3    1
 -1         1 1.78039E-02 1.69018E-02 2.26262E-02-5.52658E-18-1.48330E-17-2.76727E-17
 -1         2 1.78039E-02 1.69018E-02 2.26262E-02-3.33919E-18 1.41669E-17-5.89632E-18
 -1         3 1.78039E-02 1.69018E-02 2.26262E-02-5.28679E-19-6.36900E-18 7.66853E-18
 -1         4 1.78039E-02 1.69018E-02 2.26262E-02 1.58870E-18 1.63664E-17 5.90053E-17
 -1         5 1.78054E-02 1.69029E-02 2.26295E-02-3.15760E-18 9.40473E-18 2.55077E-17
 -1         6 1.78054E-02 1.69029E-02 2.26295E-02 7.41002E-18-1.59327E-17 1.16723E-18
 -1         7 1.78054E-02 1.69029E-02 2.26295E-02-7.59213E-18 2.04707E-17 9.13311E-18
 -1         8 1.78054E-02 1.69029E-02 2.26295E-02 1.65662E-17-2.41414E-17-7.93208E-17
 -1         9 1.78039E-02 1.69018E-02 2.26262E-02-4.43288E-18-3.33032E-19-1.67845E-17
 -1        10 1.78039E-02 1.69018E-02 2.26262E-02-1.93393E-18 3.89895E-18 8.86105E-19
 -1        11 1.78039E-02 1.69018E-02 2.26262E-02 5.30012E-19 4.99869E-18 3.33369E-17
 -1        12 1.78039E-02 1.69018E-02 2.26262E-02-1.96894E-18 7.66713E-19 1.56663E-17
 -1        13 1.78046E-02 1.69024E-02 2.26278E-02-4.34209E-18-2.71411E-18-1.08248E-18
 -1        14 1.78046E-02 1.69024E-02 2.26278E-02 2.03542E-18-8.82905E-19-2.36455E-18
 -1        15 1.78046E-02 1.69024E-02 2.26278E-02-4.06040E-18 7.05087E-18 8.40082E-18
 -1        16 1.78046E-02 1.69024E-02 2.26278E-02 9.07747E-18-3.88752E-18-1.01578E-17
 -1        17 1.78054E-02 1.69029E-02 2.26295E-02 2.12621E-18-3.26399E-18 1.33375E-17
 -1        18 1.78054E-02 1.69029E-02 2.26295E-02-9.10556E-20 2.26902E-18 5.15017E-18
 -1        19 1.78054E-02 1.69029E-02 2.26295E-02 4.48706E-18-1.83534E-18-3.50938E-17
 -1        20 1.78054E-02 1.69029E-02 2.26295E-02 6.70432E-18-7.36834E-18-2.69065E-17
 -3
    1PSTEP                         6           2           1          
  100CL  102 2.00000E-01          20                     0    2           1
 -4  ERROR       1    1
 -5  STR(%)      1    1    0    0
 -1         1 8.40444E-07
 -1         2 8.40444E-07
 -1         3 8.40444E-07
 -1         4 8.40444E-07
 -1         5 8.40444E-07
 -1         6 8.40444E-07
 -1         7 8.40444E-07
 -1         8 8.40444E-07
 -1         9 8.40444E-07
 -1        10 8.40444E-07
 -1        11 8.40444E-07
 -1        12 8.40444E-07
 -1        13 8.40444E-07
 -1        14 8.40444E-07
 -1        15 8.40444E-07
 -1        16 8.40444E-07
 -1        17 8.40444E-07
 -1        18 8.40444E-07
 -1        19 8.40444E-07
 -1        20 8.40444E-07
 -3
    1PSTEP                         7           3           1          
  100CL  103 3.00000E-01          20                     0    3           1
 -4  STRESS      6    1
 -5  SXX         1    4    1    1
 -5  SYY         1    4    2    2
 -5  SZZ         1    4    3    3
 -5  SXY         1    4    1    2
 -5  SYZ         1    4    2    3
 -5  SZX         1    4    3    1
 -1         1 4.99980E+00 3.48530E-07 6.32462E-07 1.49887E-14-9.98756E-14-6.50103E-14
 -1         2 4.99980E+00 3.48530E-07 6.32461E-07-3.07501E-14 4.08181E-14 1.42075E-14
 -1         3 4.99980E+00 3.48529E-07 6.32461E-07-1.97673E-14-6.53441E-14 6.35022E-14
 -1         4 4.99980E+00 3.48529E-07 6.32461E-07-6.65523E-15 6.23359E-14 3.26868E-15
 -1         5 4.99980E+00 3.49589E-07 6.34413E-07-2.06056E-15 1.65035E-13-2.06392E-14
 -1         6 4.99980E+00 3.49589E-07 6.34414E-07 2.94446E-14-5.13405E-14 1.30382E-15
 -1         7 4.99980E+00 3.49589E-07 6.34413E-07 8.98842E-15-3.56066E-14-4.20086E-14
 -1         8 4.99980E+00 3.49589E-07 6.34414E-07-3.49788E-14-9.53283E-14 6.99100E-14
 -1         9 4.99980E+00 3.48530E-07 6.32462E-07-7.88067E-15-2.95287E-14-2.54014E-14
 -1        10 4.99980E+00 3.48529E-07 6.32461E-07-2.52587E-14-1.22630E-14 3.88548E-14
 -1        11 4.99980E+00 3.48529E-07 6.32461E-07-1.32113E-14-1.50410E-15 3.33854E-14
 -1        12 4.99980E+00 3.48529E-07 6.32461E-07 4.16674E-15-1.87698E-14-3.08708E-14
 -1        13 4.99980E+00 3.49059E-07 6.33437E-07 6.46408E-15 3.25795E-14-4.28247E-14
 -1        14 4.99980E+00 3.49059E-07 6.33438E-07-6.52748E-16-5.26119E-15 7.75564E-15
 -1        15 4.99980E+00 3.49059E-07 6.33437E-07-5.38945E-15-5.04753E-14 1.07468E-14
 -1        16 4.99980E+00 3.49059E-07 6.33437E-07-2.08170E-14-1.64962E-14 3.65893E-14
 -1        17 4.99980E+00 3.49589E-07 6.34414E-07 1.36920E-14 5.68471E-14-9.66767E-15
 -1        18 4.99980E+00 3.49589E-07 6.34414E-07 1.92165E-14-4.34735E-14-2.03524E-14
 -1        19 4.99980E+00 3.49589E-07 6.34414E-07-1.29952E-14-6.54675E-14 1.39507E-14
 -1        20 4.99980E+00 3.49589E-07 6.34413E-07-1.85197E-14 3.48531E-14 2.46354E-14
 -3
    1PSTEP                         8           3           1          
  100CL  103 3.00000E-01          20                     0    3           1
 -4  TOSTRAIN    6    1
 -5  EXX         1    4    1    1
 -5  EYY         1    4    2    2
 -5  EZZ         1    4    3    3
 -5  EXY         1    4    1    2
 -5  EYZ         1    4    2    3
 -5  EZX         1    4    3    1
 -1         1 1.72933E-02 1.62115E-02 2.18614E-02 3.62178E-18-3.04648E-17-2.93583E-17
 -1         2 1.72933E-02 1.62115E-02 2.18614E-02-1.10938E-17 1.29935E-17 3.49670E-18
 -1         3 1.72933E-02 1.62115E-02 2.18614E-02-3.95484E-18-1.50684E-17 2.12269E-17
 -1         4 1.72933E-02 1.62115E-02 2.18614E-02-3.55274E-18 1.73925E-17 2.33913E-17
 -1         5 1.72938E-02 1.62113E-02 2.18632E-02-2.17076E-18 4.80278E-17 2.35410E-18
 -1         6 1.72938E-02 1.62113E-02 2.18632E-02 1.04374E-17-1.56576E-17 3.76755E-18
 -1         7 1.72938E-02 1.62113E-02 2.18632E-02 3.35574E-19-9.43315E-18-1.04857E-17
 -1         8 1.72938E-02 1.62113E-02 2.18632E-02-3.48846E-18-3.20750E-17-5.61092E-18
 -1         9 1.72933E-02 1.62115E-02 2.18614E-02-3.73601E-18-8.73565E-18-1.29308E-17
 -1        10 1.72933E-02 1.62115E-02 2.18614E-02-7.52432E-18-1.03743E-18 1.23618E-17
 -1        11 1.72933E-02 1.62115E-02 2.18614E-02-3.75379E-18 1.16206E-18 2.23091E-17
 -1        12 1.72933E-02 1.62115E-02 2.18614E-02 3.45210E-20-6.53616E-18-2.98349E-18
 -1        13 1.72936E-02 1.62114E-02 2.18623E-02 7.25509E-19 8.78152E-18-1.35021E-17
 -1        14 1.72936E-02 1.62114E-02 2.18623E-02-3.28201E-19-1.33206E-18 3.63212E-18
 -1        15 1.72936E-02 1.62114E-02 2.18623E-02-1.80963E-18-1.22508E-17 5.37062E-18
 -1        16 1.72936E-02 1.62114E-02 2.18623E-02-3.52060E-18-7.34128E-18 8.89019E-18
 -1        17 1.72938E-02 1.62113E-02 2.18632E-02 4.13332E-18 1.61851E-17 3.06082E-18
 -1        18 1.72938E-02 1.62113E-02 2.18632E-02 5.38648E-18-1.25454E-17-3.35907E-18
 -1        19 1.72938E-02 1.62113E-02 2.18632E-02-1.57645E-18-2.07541E-17-8.04830E-18
 -1        20 1.72938E-02 1.62113E-02 2.18632E-02-2.82961E-18 7.97640E-18-1.62841E-18
 -3
    1PSTEP                         9           3           1          
  100CL  103 3.00000E-01          20                     0    3           1
 -4  ERROR       1    1
 -5  STR(%)      1    1    0    0
 -1         1 2.48061E-09
 -1         2 2.48061E-09
 -1         3 2.48061E-09
 -1         4 2.48061E-09
 -1         5 2.48061E-09
 -1         6 2.48061E-09
 -1         7 2.48061E-09
 -1         8 2.48061E-09
 -1         9 2.48061E-09
 -1        10 2.48061E-09
 -1        11 2.48061E-09
 -1        12 2.48061E-09
 -1        13 2.48061E-09
 -1        14 2.48061E-09
 -1        15 2.48061E-09
 -1        16 2.48061E-09
 -1        17 2.48061E-09
 -1        18 2.48061E-09
 -1        19 2.48061E-09
 -1        20 2.48061E-09
 -3
    1PSTEP                        10           4           1          
  100CL  104 4.00000E-01          20                     0    4           1
 -4  STRESS      6    1
 -5  SXX         1    4    1    1
 -5  SYY         1    4    2    2
 -5  SZZ         1    4    3    3
 -5  SXY         1    4    1    2
 -5  SYZ         1    4    2    3
 -5  SZX         1    4    3    1
 -1         1 4.99980E+00 2.84077E-07 5.42413E-07 3.31357E-14-1.88384E-13 1.57209E-13
 -1         2 4.99980E+00 2.84077E-07 5.42413E-07-9.97377E-14-1.07483E-13-1.29751E-13
 -1         3 4.99980E+00 2.84077E-07 5.42413E-07 4.85608E-14-4.27590E-14 2.09239E-13
 -1         4 4.99980E+00 2.84077E-07 5.42413E-07-1.02610E-13 3.00451E-13-1.33478E-13
 -1         5 4.99980E+00 2.85186E-07 5.44334E-07-8.95774E-15-1.39635E-15 2.00340E-14
 -1         6 4.99980E+00 2.85186E-07 5.44333E-07-1.19713E-14 1.51508E-13 1.30699E-13
 -1         7 4.99980E+00 2.85185E-07 5.44332E-07 5.26073E-14 2.91585E-14 1.26560E-14
 -1         8 4.99980E+00 2.85186E-07 5.44334E-07-4.68355E-14-9.76295E-14-4.94737E-14
 -1         9 4.99980E+00 2.84077E-07 5.42413E-07-3.33010E-14-1.47934E-13 1.37291E-14
 -1        10 4.99980E+00 2.84077E-07 5.42413E-07-2.55885E-14-7.51211E-14 3.97437E-14
 -1        11 4.99980E+00 2.84077E-07 5.42413E-07-2.70245E-14 1.28846E-13 3.78804E-14
 -1        12 4.99980E+00 2.84077E-07 5.42413E-07-3.47371E-14 5.60334E-14 1.18658E-14
 -1        13 4.99980E+00 2.84631E-07 5.43373E-07 1.20890E-14-9.48904E-14 8.86216E-14
 -1        14 4.99980E+00 2.84631E-07 5.43373E-07-5.58545E-14 2.20123E-14 4.74028E-16
 -1        15 4.99980E+00 2.84631E-07 5.43372E-07 5.05841E-14-6.80027E-15 1.10947E-13
 -1        16 4.99980E+00 2.84631E-07 5.43373E-07-7.47227E-14 1.01411E-13-9.14757E-14
 -1        17 4.99980E+00 2.85186E-07 5.44333E-07-1.04645E-14 7.50558E-14 7.53666E-14
 -1        18 4.99980E+00 2.85185E-07 5.44332E-07 2.03180E-14 9.03332E-14 7.16776E-14
 -1        19 4.99980E+00 2.85185E-07 5.44333E-07 2.88592E-15-3.42355E-14-1.84089E-14
 -1        20 4.99980E+00 2.85186E-07 5.44334E-07-2.78966E-14-4.95129E-14-1.47198E-14
 -3
    1PSTEP                        11           4           1          
  100CL  104 4.00000E-01          20                     0    4           1
 -4  TOSTRAIN    6    1
 -5  EXX         1    4    1    1
 -5  EYY         1    4    2    2
 -5  EZZ         1    4    3    3
 -5  EXY         1    4    1    2
 -5  EYZ         1    4    2    3
 -5  EZX         1    4    3    1
 -1         1 1.67820E-02 1.55262E-02 2.11029E-02 9.71372E-18-6.19905E-17 2.69376E-17
 -1         2 1.67820E-02 1.55262E-02 2.11029E-02-3.21575E-17-2.45808E-17-3.47960E-17
 -1         3 1.67820E-02 1.55262E-02 2.11029E-02 1.32117E-17-1.38379E-17 6.56725E-17
 -1         4 1.67820E-02 1.55262E-02 2.11029E-02-3.02280E-17 8.71207E-17-1.44741E-17
 -1         5 1.67815E-02 1.55246E-02 2.11032E-02-4.15846E-18 1.47053E-17 1.16839E-17
 -1         6 1.67815E-02 1.55246E-02 2.11032E-02 1.22625E-18 3.60430E-17 3.91389E-17
 -1         7 1.67815E-02 1.55246E-02 2.11032E-02 1.30003E-17 5.61266E-18 1.30505E-18
 -1         8 1.67815E-02 1.55246E-02 2.11032E-02-9.52927E-18-3.96032E-17-3.22614E-17
 -1         9 1.67820E-02 1.55262E-02 2.11029E-02-1.12219E-17-4.32856E-17-3.92921E-18
 -1        10 1.67820E-02 1.55262E-02 2.11029E-02-9.47290E-18-1.92093E-17 1.54382E-17
 -1        11 1.67820E-02 1.55262E-02 2.11029E-02-8.50816E-18 3.66414E-17 2.55992E-17
 -1        12 1.67820E-02 1.55262E-02 2.11029E-02-1.02571E-17 1.25651E-17 6.23177E-18
 -1        13 1.67817E-02 1.55254E-02 2.11031E-02 2.77763E-18-2.36426E-17 1.93108E-17
 -1        14 1.67817E-02 1.55254E-02 2.11031E-02-1.54656E-17 5.73111E-18 2.17145E-18
 -1        15 1.67817E-02 1.55254E-02 2.11031E-02 1.31060E-17-4.11263E-18 3.34888E-17
 -1        16 1.67817E-02 1.55254E-02 2.11031E-02-1.98786E-17 2.37588E-17-2.33677E-17
 -1        17 1.67815E-02 1.55246E-02 2.11032E-02-1.46611E-18 2.53741E-17 2.54114E-17
 -1        18 1.67815E-02 1.55246E-02 2.11032E-02 7.11326E-18 2.08278E-17 2.02220E-17
 -1        19 1.67815E-02 1.55246E-02 2.11032E-02 1.73550E-18-1.69953E-17-1.54782E-17
 -1        20 1.67815E-02 1.55246E-02 2.11032E-02-6.84387E-18-1.24490E-17-1.02888E-17
 -3
    1PSTEP                        12           4           1          
  100CL  104 4.00000E-01          20                     0    4           1
 -4  ERROR       1    1
 -5  STR(%)      1    1    0    0
 -1         1 2.59562E-09
 -1         2 2.59562E-09
 -1         3 2.59562E-09
 -1         4 2.59562E-09
 -1         5 2.59562E-09
 -1         6 2.59562E-09
 -1         7 2.59562E-09
 -1         8 2.59562E-09
 -1         9 2.59562E-09
 -1        10 2.59562E-09
 -1        11 2.59562E-09
 -1        12 2.59562E-09
 -1        13 2.59562E-09
 -1        14 2.59562E-09
 -1        15 2.59562E-09
 -1        16 2.59562E-09
 -1        17 2.59562E-09
 -1        18 2.59562E-09
 -1        19 2.59562E-09
 -1        20 2.59562E-09
 -3
    1PSTEP                        13           5           1          
  100CL  105 5.00000E-01          20                     0    5           1
 -4  STRESS      6    1
 -5  SXX         1    4    1    1
 -5  SYY         1    4    2    2
 -5  SZZ         1    4    3    3
 -5  SXY         1    4    1    2
 -5  SYZ         1    4    2    3
 -5  SZX         1    4    3    1
 -1         1 4.99980E+00 2.98836E-07 5.43970E-07 8.69685E-14-5.32857E-14-1.57632E-13
 -1         2 4.99980E+00 2.98833E-07 5.43967E-07-1.39998E-13 6.65404E-14 4.16747E-13
 -1         3 4.99980E+00 2.98836E-07 5.43968E-07 1.36870E-13-1.58039E-13 1.18259E-14
 -1         4 4.99980E+00 2.98834E-07 5.43967E-07-1.43453E-13-5.22437E-14-1.04070E-14
 -1         5 4.99980E+00 2.99911E-07 5.45773E-07-2.09398E-14 2.14180E-15 3.04984E-14
 -1         6 4.99980E+00 2.99912E-07 5.45773E-07 2.06090E-13 2.24641E-14-8.03419E-14
 -1         7 4.99980E+00 2.99909E-07 5.45771E-07-1.24477E-13 1.77680E-13-1.07494E-13
 -1         8 4.99980E+00 2.99911E-07 5.45774E-07 1.21103E-13 1.21704E-13-3.71703E-14
 -1         9 4.99980E+00 2.98835E-07 5.43968E-07-2.65148E-14 6.62732E-15 1.29558E-13
 -1        10 4.99980E+00 2.98835E-07 5.43968E-07-1.56422E-15-4.57494E-14 2.14287E-13
 -1        11 4.99980E+00 2.98835E-07 5.43967E-07-3.29164E-15-1.05141E-13 7.09445E-16
 -1        12 4.99980E+00 2.98835E-07 5.43968E-07-2.82422E-14-5.27647E-14-8.40195E-14
 -1        13 4.99980E+00 2.99373E-07 5.44871E-07 3.30144E-14-2.55720E-14-6.35668E-14
 -1        14 4.99980E+00 2.99373E-07 5.44870E-07 3.30460E-14 4.45022E-14 1.68203E-13
 -1        15 4.99980E+00 2.99373E-07 5.44870E-07 6.19608E-15 9.82038E-15-4.78343E-14
 -1        16 4.99980E+00 2.99373E-07 5.44870E-07-1.11749E-14 3.47301E-14-2.37887E-14
 -1        17 4.99980E+00 2.99911E-07 5.45773E-07 9.25752E-14 1.23030E-14-2.49218E-14
 -1        18 4.99980E+00 2.99910E-07 5.45772E-07 4.08063E-14 1.00072E-13-9.39182E-14
 -1        19 4.99980E+00 2.99910E-07 5.45772E-07-1.68715E-15 1.49692E-13-7.23324E-14
 -1        20 4.99980E+00 2.99911E-07 5.45773E-07 5.00817E-14 6.19228E-14-3.33597E-15
 -3
    1PSTEP                        14           5           1          
  100CL  105 5.00000E-01          20                     0    5           1
 -4  TOSTRAIN    6    1
 -5  EXX         1    4    1    1
 -5  EYY         1    4    2    2
 -5  EZZ         1    4    3    3
 -5  EXY         1    4    1    2
 -5  EYZ         1    4    2    3
 -5  EZX         1    4    3    1
 -1         1 1.62702E-02 1.48459E-02 2.03508E-02 2.66710E-17-3.92299E-17-4.57594E-17
 -1         2 1.62702E-02 1.48459E-02 2.03508E-02-5.02720E-17 1.41947E-17 1.02888E-16
 -1         3 1.62702E-02 1.48459E-02 2.03508E-02 4.06350E-17-4.80279E-17 2.77275E-17
 -1         4 1.62702E-02 1.48459E-02 2.03508E-02-4.87990E-17 1.41947E-17 8.09431E-18
 -1         5 1.62687E-02 1.48430E-02 2.03496E-02-8.00104E-18 1.50684E-17 1.58024E-17
 -1         6 1.62687E-02 1.48430E-02 2.03496E-02 5.89902E-17 1.26930E-17-8.14877E-18
 -1         7 1.62687E-02 1.48430E-02 2.03496E-02-3.07910E-17 4.79032E-17-3.00797E-17
 -1         8 1.62687E-02 1.48430E-02 2.03496E-02 3.21659E-17 1.26930E-17-3.20369E-17
 -1         9 1.62702E-02 1.48459E-02 2.03508E-02-1.18005E-17-1.25176E-17 2.85644E-17
 -1        10 1.62702E-02 1.48459E-02 2.03508E-02-4.81851E-18-1.69166E-17 6.53079E-17
 -1        11 1.62702E-02 1.48459E-02 2.03508E-02-4.08203E-18-1.69166E-17 1.79109E-17
 -1        12 1.62702E-02 1.48459E-02 2.03508E-02-1.10640E-17-1.25176E-17-1.88326E-17
 -1        13 1.62695E-02 1.48444E-02 2.03502E-02 9.33498E-18-1.20808E-17-1.49785E-17
 -1        14 1.62695E-02 1.48444E-02 2.03502E-02 4.35914E-18 1.34438E-17 4.73698E-17
 -1        15 1.62695E-02 1.48444E-02 2.03502E-02 4.92195E-18-6.23286E-20-1.17611E-18
 -1        16 1.62695E-02 1.48444E-02 2.03502E-02-8.31656E-18 1.34438E-17-1.19713E-17
 -1        17 1.62687E-02 1.48430E-02 2.03496E-02 2.54946E-17 1.38807E-17 3.82680E-18
 -1        18 1.62687E-02 1.48430E-02 2.03496E-02 1.40996E-17 3.02981E-17-1.91143E-17
 -1        19 1.62687E-02 1.48430E-02 2.03496E-02 6.87425E-19 3.02981E-17-3.10583E-17
 -1        20 1.62687E-02 1.48430E-02 2.03496E-02 1.20824E-17 1.38807E-17-8.11726E-18
 -3
    1PSTEP                        15           5           1          
  100CL  105 5.00000E-01          20                     0    5           1
 -4  ERROR       1    1
 -5  STR(%)      1    1    0    0
 -1         1 2.52074E-09
 -1         2 2.52074E-09
 -1         3 2.52074E-09
 -1         4 2.52074E-09
 -1         5 2.52074E-09
 -1         6 2.52074E-09
 -1         7 2.52074E-09
 -1         8 2.52074E-09
 -1         9 2.52074E-09
 -1        10 2.52074E-09
 -1        11 2.52074E-09
 -1        12 2.52074E-09
 -1        13 2.52074E-09
 -1        14 2.52074E-09
 -1        15 2.52074E-09
 -1        16 2.52074E-09
 -1        17 2.52074E-09
 -1        18 2.52074E-09
 -1        19 2.52074E-09
 -1        20 2.52074E-09
 -3
    1PSTEP                        16           6           1          
  100CL  106 6.00000E-01          20                     0    6           1
 -4  STRESS      6    1
 -5  SXX         1    4    1    1
 -5  SYY         1    4    2    2
 -5  SZZ         1    4    3    3
 -5  SXY         1    4    1    2
 -5  SYZ         1    4    2    3
 -5  SZX         1    4    3    1
 -1         1 4.99980E+00 2.97805E-07 5.28154E-07-6.85586E-13 1.65959E-13-2.66304E-13
 -1         2 4.99980E+00 2.97806E-07 5.28154E-07 3.56527E-13 7.61915E-13 1.00740E-13
 -1         3 4.99980E+00 2.97804E-07 5.28153E-07-1.44488E-13-4.23751E-13-1.96293E-13
 -1         4 4.99980E+00 2.97806E-07 5.28155E-07 2.97527E-13-2.74661E-14 7.66462E-14
 -1         5 4.99980E+00 2.98859E-07 5.29858E-07 2.22013E-13-1.61968E-13 6.50841E-14
 -1         6 4.99980E+00 2.98857E-07 5.29858E-07-3.52306E-13-1.31643E-13-4.53735E-14
 -1         7 4.99980E+00 2.98860E-07 5.29860E-07 1.72334E-14 1.79888E-13 7.08553E-14
 -1         8 4.99980E+00 2.98858E-07 5.29857E-07 8.20172E-14 1.16264E-14 2.08803E-13
 -1         9 4.99980E+00 2.97806E-07 5.28154E-07-1.64530E-13 4.63937E-13-8.27819E-14
 -1        10 4.99980E+00 2.97805E-07 5.28153E-07 1.06019E-13 1.69082E-13-4.77766E-14
 -1        11 4.99980E+00 2.97805E-07 5.28154E-07 7.65192E-14-2.25609E-13-5.98235E-14
 -1        12 4.99980E+00 2.97806E-07 5.28154E-07-1.94030E-13 6.92464E-14-9.48288E-14
 -1        13 4.99980E+00 2.98332E-07 5.29006E-07-2.31786E-13 1.99571E-15-1.00610E-13
 -1        14 4.99980E+00 2.98332E-07 5.29006E-07 2.11024E-15 3.15136E-13 2.76832E-14
 -1        15 4.99980E+00 2.98332E-07 5.29006E-07-6.36275E-14-1.21932E-13-6.27190E-14
 -1        16 4.99980E+00 2.98332E-07 5.29006E-07 1.89772E-13-7.91986E-15 1.42725E-13
 -1        17 4.99980E+00 2.98858E-07 5.29858E-07-6.51465E-14-1.46805E-13 9.85530E-15
 -1        18 4.99980E+00 2.98858E-07 5.29859E-07-1.67537E-13 2.41224E-14 1.27409E-14
 -1        19 4.99980E+00 2.98859E-07 5.29858E-07 4.96253E-14 9.57571E-14 1.39829E-13
 -1        20 4.99980E+00 2.98858E-07 5.29858E-07 1.52015E-13-7.51706E-14 1.36944E-13
 -3
    1PSTEP                        17           6           1          
  100CL  106 6.00000E-01          20                     0    6           1
 -4  TOSTRAIN    6    1
 -5  EXX         1    4    1    1
 -5  EYY         1    4    2    2
 -5  EZZ         1    4    3    3
 -5  EXY         1    4    1    2
 -5  EYZ         1    4    2    3
 -5  EZX         1    4    3    1
 -1         1 1.57583E-02 1.41706E-02 1.96050E-02-1.72413E-16 1.59042E-17-8.63003E-17
 -1         2 1.57583E-02 1.41706E-02 1.96050E-02 7.17504E-17 2.04197E-16 5.01742E-17
 -1         3 1.57583E-02 1.41706E-02 1.96050E-02-2.41184E-17-1.30282E-16-2.75199E-17
 -1         4 1.57583E-02 1.41706E-02 1.96050E-02 5.81175E-17 1.59858E-17 3.01396E-17
 -1         5 1.57557E-02 1.41664E-02 1.96024E-02 5.51266E-17-2.88777E-17 2.70318E-17
 -1         6 1.57557E-02 1.41664E-02 1.96024E-02-7.42715E-17-2.68284E-17-5.25768E-18
 -1         7 1.57557E-02 1.41664E-02 1.96024E-02-2.46622E-18 6.17230E-17 9.37698E-18
 -1         8 1.57557E-02 1.41664E-02 1.96024E-02 3.08142E-17-6.87544E-18 3.13023E-17