
 displacements (vx,vy,vz) for set ONE and time  0.1000000E+01

         1  4.650126E+02 -7.586969E+01 -7.585058E+01
