
 displacements (vx,vy,vz) for set ONE and time  0.1000000E+01

         1  7.612418E+02 -4.359895E+02 -4.361719E+02
