
 displacements (vx,vy,vz) for set ONE and time  0.1000000E+01

         1  4.650128E+02 -8.989632E+01 -8.987721E+01
